                         Program Version 4.0.0.2 - RELEASE -
|  1> !aug-cc-pVDZ B3LYP NMR
|  2>
|  3> *xyzfile 0 1 guess.xyz
|  4>
|  5>
|  6>                          ****END OF INPUT****

CARTESIAN COORDINATES (ANGSTROEM)
---------------------------------
  C    -12.843110   -1.122300    6.891740
  C    -12.212950    0.071040    6.149470
  H    -13.330350   -0.881440    7.836630
  H    -12.173460   -1.982440    7.018700
  H    -13.655380   -1.512010    6.247240
  C    -11.533330    1.315160    6.751990
  H    -11.946700    1.667370    7.696340
  H    -11.690580    2.146840    6.038630
  H    -10.440420    1.239310    6.826440
  C    -11.164610   -0.526810    5.210490
  H    -10.280020   -0.808760    5.804260
  H    -10.843120    0.183530    4.444590
  H    -11.509540   -1.437880    4.713240
  O    -13.377660    0.658660    5.535080
  H    -13.902700    0.971450    6.265670

 Total Charge           Charge          ....    0
 Multiplicity           Mult            ....    1
 Number of Electrons    NEL             ....   42
 Basis Dimension        Dim             ....  205

ORBITAL ENERGIES
----------------

  NO   OCC          E(Eh)            E(eV)
   0   2.0000     -19.133912      -520.6602
   1   2.0000     -10.243193      -278.7315
   2   2.0000     -10.174921      -276.8737
   3   2.0000     -10.174444      -276.8607
   4   2.0000     -10.173562      -276.8367
   5   2.0000      -1.025009       -27.8919
   6   2.0000      -0.788000       -21.4426
   7   2.0000      -0.703222       -19.1357
   8   2.0000      -0.680230       -18.5100
   9   2.0000      -0.573045       -15.5933
  10   2.0000      -0.488751       -13.2996
  11   2.0000      -0.454384       -12.3644
  12   2.0000      -0.451275       -12.2798
  13   2.0000      -0.416087       -11.3223
  14   2.0000      -0.398093       -10.8327
  15   2.0000      -0.383900       -10.4464
  16   2.0000      -0.368216       -10.0197
  17   2.0000      -0.354812        -9.6549
  18   2.0000      -0.349256        -9.5037
  19   2.0000      -0.304895        -8.2966
  20   2.0000      -0.266079        -7.2404
  21   0.0000      -0.013387        -0.3643
  22   0.0000       0.009493         0.2583
  23   0.0000       0.012109         0.3295
  24   0.0000       0.019527         0.5313
  25   0.0000       0.029274         0.7966

MULLIKEN ATOMIC CHARGES
-----------------------
   0 C :    0.900473
   1 C :    0.159560
   2 H :   -0.354158
   3 H :   -0.332597
   4 H :   -0.179541
   5 C :    0.913306
   6 H :   -0.388508
   7 H :   -0.178522
   8 H :   -0.299158
   9 C :    0.894206
  10 H :   -0.081770
  11 H :   -0.273206
  12 H :   -0.351672
  13 O :   -0.496961
  14 H :    0.068548
Sum of atomic charges:   -0.0000000

LOEWDIN ATOMIC CHARGES
----------------------
   0 C :   -0.372656
   1 C :   -2.091577
   2 H :    0.268974
   3 H :    0.275343
   4 H :    0.314912
   5 C :   -0.370565
   6 H :    0.267177
   7 H :    0.314679
   8 H :    0.273649
   9 C :   -0.381258
  10 H :    0.318311
  11 H :    0.282793
  12 H :    0.277205
  13 O :    0.491674
  14 H :    0.131339

  Mayer bond orders larger than 0.1
B(  0-C ,  1-C ) :   1.0842 B(  0-C ,  2-H ) :   0.7480 B(  0-C ,  3-H ) :   0.7709
B(  0-C ,  4-H ) :   0.7715 B(  1-C ,  2-H ) :   0.1442 B(  1-C ,  4-H ) :   0.2288
B(  1-C ,  5-C ) :   1.1319 B(  1-C ,  6-H ) :   0.1210 B(  1-C ,  7-H ) :   0.2466
B(  1-C ,  9-C ) :   1.3192 B(  1-C , 10-H ) :   0.1331 B(  1-C , 11-H ) :   0.1825
B(  1-C , 12-H ) :   0.1504 B(  1-C , 13-O ) :   0.5081 B(  2-H ,  3-H ) :  -0.1797
B(  5-C ,  6-H ) :   0.7544 B(  5-C ,  7-H ) :   0.7537 B(  5-C ,  8-H ) :   0.7962
B(  6-H ,  8-H ) :  -0.1706 B(  9-C , 10-H ) :   0.7842 B(  9-C , 11-H ) :   0.6976
B(  9-C , 12-H ) :   0.7163 B( 10-H , 11-H ) :  -0.1021 B( 10-H , 12-H ) :  -0.1009
B( 11-H , 12-H ) :  -0.1603 B( 13-O , 14-H ) :   1.0676

FINAL SINGLE POINT ENERGY      -233.524845578076

DIPOLE MOMENT
-------------
                                X             Y             Z
Electronic contribution:     -2.37617       1.17779      -1.20372
Nuclear contribution   :      2.58376      -1.26136       1.75126
                        -----------------------------------------
Total Dipole Moment    :      0.20759      -0.08357       0.54754
                        -----------------------------------------
Magnitude (a.u.)       :      0.59151
Magnitude (Debye)      :      1.50349

CHEMICAL SHIELDING SUMMARY (ppm)
--------------------------

  Nucleus  Element    Isotropic     Anisotropy
  -------  -------  ------------   ------------
      0       C          159.479         55.997
      1       C          122.345         63.043
      2       H           30.370          8.049
      3       H           30.026          8.471
      4       H           29.478          5.925
      5       C          158.896         59.011
      6       H           30.330          8.113
      7       H           29.506          5.871
      8       H           30.088          8.411
      9       C          159.273         43.605
     10       H           30.261          6.881
     11       H           30.230          7.485
     12       H           30.397          7.452
     13       O          201.489         75.239
     14       H           31.104         11.586

                             ****ORCA TERMINATED NORMALLY****
TOTAL RUN TIME: 0 days 0 hours 6 minutes 30 seconds 415 msec
