                         Program Version 4.0.0.2 - RELEASE -
|  1> !cc-pvdz OLYP NMR
|  2>
|  3> *xyzfile 0 1 guess.xyz
|  4>
|  5>
|  6>                          ****END OF INPUT****

CARTESIAN COORDINATES (ANGSTROEM)
---------------------------------
  C    -19.529460    2.358330   10.578980
  C    -18.295990    2.311200    9.927040
  C    -17.540400    3.475150    9.773430
  C    -18.011570    4.692240   10.269410
  C    -19.243530    4.751880   10.923160
  C    -19.999560    3.581640   11.075830
  H    -20.106070    1.442490   10.690550
  H    -19.596550    5.707970   11.303890
  H    -17.417250    5.594980   10.145920
  H    -16.579500    3.433530    9.264640
  H    -17.922350    1.366540    9.537920
  N    -21.295720    3.637710   11.762600
  O    -21.676040    4.737710   12.189090
  O    -21.934990    2.581820   11.876410

 Total Charge           Charge          ....    0
 Multiplicity           Mult            ....    1
 Number of Electrons    NEL             ....   64
 Basis Dimension        Dim             ....  151

ORBITAL ENERGIES
----------------

  NO   OCC          E(Eh)            E(eV)
   0   2.0000     -18.793563      -511.3989
   1   2.0000     -18.793293      -511.3915
   2   2.0000     -14.225241      -387.0885
   3   2.0000      -9.977972      -271.5144
   4   2.0000      -9.946291      -270.6523
   5   2.0000      -9.945998      -270.6444
   6   2.0000      -9.943817      -270.5850
   7   2.0000      -9.942218      -270.5415
   8   2.0000      -9.942110      -270.5386
   9   2.0000      -1.124776       -30.6067
  10   2.0000      -0.959848       -26.1188
  11   2.0000      -0.814679       -22.1686
  12   2.0000      -0.736848       -20.0506
  13   2.0000      -0.704506       -19.1706
  14   2.0000      -0.638029       -17.3617
  15   2.0000      -0.570302       -15.5187
  16   2.0000      -0.538698       -14.6587
  17   2.0000      -0.497820       -13.5464
  18   2.0000      -0.468827       -12.7574
  19   2.0000      -0.453674       -12.3451
  20   2.0000      -0.450123       -12.2485
  21   2.0000      -0.415407       -11.3038
  22   2.0000      -0.414289       -11.2734
  23   2.0000      -0.394400       -10.7322
  24   2.0000      -0.347200        -9.4478
  25   2.0000      -0.338406        -9.2085
  26   2.0000      -0.322834        -8.7848
  27   2.0000      -0.263350        -7.1661
  28   2.0000      -0.251849        -6.8532
  29   2.0000      -0.248400        -6.7593
  30   2.0000      -0.247444        -6.7333
  31   2.0000      -0.228332        -6.2132
  32   0.0000      -0.112182        -3.0526
  33   0.0000      -0.055148        -1.5007
  34   0.0000      -0.029915        -0.8140
  35   0.0000       0.021283         0.5791
  36   0.0000       0.060503         1.6464

MULLIKEN ATOMIC CHARGES
-----------------------
   0 C :    0.076095
   1 C :    0.071727
   2 C :    0.079481
   3 C :    0.066397
   4 C :    0.085192
   5 C :    0.132439
   6 H :   -0.021026
   7 H :   -0.024036
   8 H :   -0.038781
   9 H :   -0.040611
  10 H :   -0.042357
  11 N :    0.128577
  12 O :   -0.237036
  13 O :   -0.236062
Sum of atomic charges:   -0.0000000

LOEWDIN ATOMIC CHARGES
----------------------
   0 C :    0.004507
   1 C :   -0.010350
   2 C :    0.003439
   3 C :   -0.011274
   4 C :    0.005741
   5 C :   -0.065337
   6 H :    0.032630
   7 H :    0.032405
   8 H :    0.029266
   9 H :    0.028350
  10 H :    0.028800
  11 N :    0.194780
  12 O :   -0.136647
  13 O :   -0.136309

  Mayer bond orders larger than 0.1
B(  0-C ,  1-C ) :   1.4508 B(  0-C ,  5-C ) :   1.3762 B(  0-C ,  6-H ) :   0.9222
B(  1-C ,  2-C ) :   1.4313 B(  1-C , 10-H ) :   0.9372 B(  2-C ,  3-C ) :   1.4281
B(  2-C ,  9-H ) :   0.9410 B(  3-C ,  4-C ) :   1.4486 B(  3-C ,  8-H ) :   0.9389
B(  4-C ,  5-C ) :   1.3774 B(  4-C ,  7-H ) :   0.9221 B(  5-C , 11-N ) :   0.7847
B( 11-N , 12-O ) :   1.5952 B( 11-N , 13-O ) :   1.5966 B( 12-O , 13-O ) :   0.3097

FINAL SINGLE POINT ENERGY      -436.673264531745

DIPOLE MOMENT
-------------
                                X             Y             Z
Electronic contribution:     -5.51279       0.23950       2.92192
Nuclear contribution   :      6.98754      -0.30246      -3.70143
                        -----------------------------------------
Total Dipole Moment    :      1.47475      -0.06296      -0.77951
                        -----------------------------------------
Magnitude (a.u.)       :      1.66928
Magnitude (Debye)      :      4.24297

CHEMICAL SHIELDING SUMMARY (ppm)
--------------------------

  Nucleus  Element    Isotropic     Anisotropy
  -------  -------  ------------   ------------
      0       C           73.002        167.034
      1       C           68.160        163.325
      2       C           64.432        175.854
      3       C           68.332        163.400
      4       C           72.801        167.215
      5       C           50.697        102.520
      6       H           23.407          4.959
      7       H           23.440          4.917
      8       H           24.039          5.004
      9       H           23.979          5.246
     10       H           24.046          4.998
     11       N          -92.045       -186.121
     12       O         -277.934       -507.491
     13       O         -278.505       -508.797

                             ****ORCA TERMINATED NORMALLY****
TOTAL RUN TIME: 0 days 0 hours 1 minutes 5 seconds 4 msec
