                         Program Version 4.0.0.2 - RELEASE -
|  1> !cc-pvdz OLYP NMR
|  2>
|  3> *xyzfile 0 1 guess.xyz
|  4>
|  5>
|  6>                          ****END OF INPUT****

CARTESIAN COORDINATES (ANGSTROEM)
---------------------------------
  C     -3.811030   -1.056290    2.125820
  C     -3.977940    0.289510    2.808070
  H     -4.190390   -1.855890    2.770210
  H     -2.764060   -1.275650    1.892610
  H     -4.375620   -1.086340    1.188230
  C     -3.017000    1.317570    2.269120
  H     -3.772650    0.182250    3.877670
  H     -5.000880    0.657050    2.677920
  O     -3.131300    2.516860    2.496330
  H     -2.132490    0.934810    1.731070

 Total Charge           Charge          ....    0
 Multiplicity           Mult            ....    1
 Number of Electrons    NEL             ....   32
 Basis Dimension        Dim             ....   86

ORBITAL ENERGIES
----------------

  NO   OCC          E(Eh)            E(eV)
   0   2.0000     -18.764881      -510.6184
   1   2.0000      -9.994172      -271.9553
   2   2.0000      -9.925035      -270.0739
   3   2.0000      -9.916536      -269.8427
   4   2.0000      -0.949507       -25.8374
   5   2.0000      -0.720770       -19.6131
   6   2.0000      -0.592148       -16.1132
   7   2.0000      -0.519417       -14.1340
   8   2.0000      -0.420308       -11.4372
   9   2.0000      -0.400480       -10.8976
  10   2.0000      -0.388677       -10.5764
  11   2.0000      -0.341662        -9.2971
  12   2.0000      -0.330508        -8.9936
  13   2.0000      -0.325457        -8.8561
  14   2.0000      -0.298756        -8.1296
  15   2.0000      -0.197059        -5.3623
  16   0.0000      -0.060543        -1.6475
  17   0.0000       0.040072         1.0904
  18   0.0000       0.063745         1.7346
  19   0.0000       0.078151         2.1266
  20   0.0000       0.095030         2.5859

MULLIKEN ATOMIC CHARGES
-----------------------
   0 C :    0.006342
   1 C :   -0.030185
   2 H :    0.006026
   3 H :    0.012540
   4 H :    0.015962
   5 C :    0.169025
   6 H :    0.039971
   7 H :    0.024738
   8 O :   -0.208443
   9 H :   -0.035976
Sum of atomic charges:   -0.0000000

LOEWDIN ATOMIC CHARGES
----------------------
   0 C :   -0.057036
   1 C :   -0.069833
   2 H :    0.027114
   3 H :    0.022094
   4 H :    0.026216
   5 C :   -0.014365
   6 H :    0.047564
   7 H :    0.039475
   8 O :   -0.005759
   9 H :   -0.015470

  Mayer bond orders larger than 0.1
B(  0-C ,  1-C ) :   1.0834 B(  0-C ,  2-H ) :   0.9643 B(  0-C ,  3-H ) :   0.9656
B(  0-C ,  4-H ) :   0.9710 B(  1-C ,  5-C ) :   1.0086 B(  1-C ,  6-H ) :   0.9242
B(  1-C ,  7-H ) :   0.9351 B(  5-C ,  8-O ) :   2.1806 B(  5-C ,  9-H ) :   0.9136

FINAL SINGLE POINT ENERGY      -193.080040377948

DIPOLE MOMENT
-------------
                                X             Y             Z
Electronic contribution:      1.15103       5.61577       0.35176
Nuclear contribution   :     -1.24924      -6.57187      -0.37223
                        -----------------------------------------
Total Dipole Moment    :     -0.09821      -0.95610      -0.02047
                        -----------------------------------------
Magnitude (a.u.)       :      0.96135
Magnitude (Debye)      :      2.44355

CHEMICAL SHIELDING SUMMARY (ppm)
--------------------------

  Nucleus  Element    Isotropic     Anisotropy
  -------  -------  ------------   ------------
      0       C          182.497         15.239
      1       C          156.440         30.575
      2       H           30.353          7.814
      3       H           30.118          8.059
      4       H           30.527          8.647
      5       C           -6.935       -121.582
      6       H           29.444          6.643
      7       H           29.352          5.465
      8       O         -357.829       -946.030
      9       H           21.204          3.798

                             ****ORCA TERMINATED NORMALLY****
TOTAL RUN TIME: 0 days 0 hours 0 minutes 15 seconds 68 msec
