                         Program Version 4.0.0.2 - RELEASE -
|  1> !aug-cc-pVDZ B3LYP NMR
|  2>
|  3> *xyzfile 0 1 guess.xyz
|  4>
|  5>
|  6>                          ****END OF INPUT****

CARTESIAN COORDINATES (ANGSTROEM)
---------------------------------
  C     -7.070220    2.323870    5.350750
  C     -6.431590    3.497590    5.404230
  H     -6.746610    1.511210    4.707880
  H     -7.950120    2.152030    5.963880
  C     -5.234810    3.745660    4.576600
  H     -6.754480    4.309740    6.044950
  O     -4.648060    4.819660    4.612450
  H     -4.904490    2.915020    3.931130

 Total Charge           Charge          ....    0
 Multiplicity           Mult            ....    1
 Number of Electrons    NEL             ....   30
 Basis Dimension        Dim             ....  128

ORBITAL ENERGIES
----------------

  NO   OCC          E(Eh)            E(eV)
   0   2.0000     -19.152034      -521.1533
   1   2.0000     -10.281408      -279.7713
   2   2.0000     -10.222799      -278.1765
   3   2.0000     -10.214196      -277.9424
   4   2.0000      -1.050004       -28.5721
   5   2.0000      -0.811606       -22.0849
   6   2.0000      -0.655918       -17.8484
   7   2.0000      -0.582820       -15.8593
   8   2.0000      -0.487439       -13.2639
   9   2.0000      -0.481602       -13.1050
  10   2.0000      -0.427438       -11.6312
  11   2.0000      -0.405391       -11.0312
  12   2.0000      -0.400188       -10.8897
  13   2.0000      -0.302278        -8.2254
  14   2.0000      -0.267445        -7.2776
  15   0.0000      -0.078792        -2.1440
  16   0.0000      -0.008740        -0.2378
  17   0.0000       0.005007         0.1363
  18   0.0000       0.013308         0.3621
  19   0.0000       0.017557         0.4777

MULLIKEN ATOMIC CHARGES
-----------------------
   0 C :    0.673710
   1 C :    1.223683
   2 H :   -0.556111
   3 H :   -0.496137
   4 C :    0.716432
   5 H :   -0.673327
   6 O :   -0.493820
   7 H :   -0.394429
Sum of atomic charges:    0.0000000

LOEWDIN ATOMIC CHARGES
----------------------
   0 C :   -0.119129
   1 C :   -0.654811
   2 H :    0.226817
   3 H :    0.220361
   4 C :   -0.602211
   5 H :    0.261022
   6 O :    0.412063
   7 H :    0.255888

  Mayer bond orders larger than 0.1
B(  0-C ,  1-C ) :   1.1773 B(  0-C ,  2-H ) :   0.9422 B(  0-C ,  3-H ) :   0.6491
B(  0-C ,  6-O ) :   0.1091 B(  1-C ,  2-H ) :  -0.2702 B(  1-C ,  4-C ) :   0.8094
B(  1-C ,  5-H ) :   0.5563 B(  2-H ,  3-H ) :  -0.2870 B(  4-C ,  6-O ) :   1.6715
B(  4-C ,  7-H ) :   0.8163

FINAL SINGLE POINT ENERGY      -191.829507506934

DIPOLE MOMENT
-------------
                                X             Y             Z
Electronic contribution:      2.06937       2.29642      -0.55726
Nuclear contribution   :     -2.88946      -3.35513       0.70721
                        -----------------------------------------
Total Dipole Moment    :     -0.82009      -1.05871       0.14995
                        -----------------------------------------
Magnitude (a.u.)       :      1.34755
Magnitude (Debye)      :      3.42521

CHEMICAL SHIELDING SUMMARY (ppm)
--------------------------

  Nucleus  Element    Isotropic     Anisotropy
  -------  -------  ------------   ------------
      0       C           58.754        182.618
      1       C           50.282        143.910
      2       H           25.235          3.945
      3       H           25.093          4.146
      4       C           -3.011        144.508
      5       H           24.860          5.218
      6       O         -326.818       -933.472
      7       H           21.453          1.913

                             ****ORCA TERMINATED NORMALLY****
TOTAL RUN TIME: 0 days 0 hours 1 minutes 19 seconds 396 msec
