                         Program Version 4.0.0.2 - RELEASE -
|  1> !aug-cc-pVDZ B3LYP NMR
|  2>
|  3> *xyzfile 0 1 guess.xyz
|  4>
|  5>
|  6>                          ****END OF INPUT****

CARTESIAN COORDINATES (ANGSTROEM)
---------------------------------
  C     -4.942800    4.814740   -0.045420
  C     -5.903350    3.947980    0.298960
  H     -4.970490    5.841600    0.305710
  H     -4.110270    4.525380   -0.681470
  C     -5.904300    2.595700   -0.139080
  H     -6.723290    4.262630    0.935010
  N     -5.909270    1.491710   -0.493960

 Total Charge           Charge          ....    0
 Multiplicity           Mult            ....    1
 Number of Electrons    NEL             ....   28
 Basis Dimension        Dim             ....  119

ORBITAL ENERGIES
----------------

  NO   OCC          E(Eh)            E(eV)
   0   2.0000     -14.344755      -390.3406
   1   2.0000     -10.248319      -278.8709
   2   2.0000     -10.237050      -278.5643
   3   2.0000     -10.233016      -278.4545
   4   2.0000      -0.920865       -25.0580
   5   2.0000      -0.825762       -22.4701
   6   2.0000      -0.665567       -18.1110
   7   2.0000      -0.545959       -14.8563
   8   2.0000      -0.487272       -13.2593
   9   2.0000      -0.420947       -11.4545
  10   2.0000      -0.389107       -10.5881
  11   2.0000      -0.372903       -10.1472
  12   2.0000      -0.344841        -9.3836
  13   2.0000      -0.297970        -8.1082
  14   0.0000      -0.071272        -1.9394
  15   0.0000      -0.017169        -0.4672
  16   0.0000       0.006748         0.1836
  17   0.0000       0.014568         0.3964
  18   0.0000       0.024587         0.6691

MULLIKEN ATOMIC CHARGES
-----------------------
   0 C :    0.785345
   1 C :    1.339727
   2 H :   -0.467501
   3 H :   -0.516480
   4 C :   -0.369198
   5 H :   -0.627212
   6 N :   -0.144681
Sum of atomic charges:   -0.0000000

LOEWDIN ATOMIC CHARGES
----------------------
   0 C :   -0.075418
   1 C :   -0.638540
   2 H :    0.223018
   3 H :    0.238999
   4 C :   -0.206644
   5 H :    0.263949
   6 N :    0.194635

  Mayer bond orders larger than 0.1
B(  0-C ,  1-C ) :   1.4018 B(  0-C ,  2-H ) :   0.6389 B(  0-C ,  3-H ) :   0.9259
B(  0-C ,  5-H ) :  -0.2169 B(  0-C ,  6-N ) :   0.1218 B(  1-C ,  3-H ) :  -0.1425
B(  1-C ,  4-C ) :   0.5923 B(  1-C ,  5-H ) :   0.6051 B(  2-H ,  3-H ) :  -0.2701
B(  4-C ,  6-N ) :   2.6839

FINAL SINGLE POINT ENERGY      -170.750100623023

DIPOLE MOMENT
-------------
                                X             Y             Z
Electronic contribution:     -0.93356      -3.06232      -0.38344
Nuclear contribution   :      1.07791       4.58903       0.78663
                        -----------------------------------------
Total Dipole Moment    :      0.14435       1.52671       0.40319
                        -----------------------------------------
Magnitude (a.u.)       :      1.58564
Magnitude (Debye)      :      4.03037

CHEMICAL SHIELDING SUMMARY (ppm)
--------------------------

  Nucleus  Element    Isotropic     Anisotropy
  -------  -------  ------------   ------------
      0       C           55.725        180.643
      1       C           83.653        130.673
      2       H           25.332          4.651
      3       H           25.161          5.587
      4       C           78.966        317.558
      5       H           25.784          3.663
      6       N          -21.146        387.293

                             ****ORCA TERMINATED NORMALLY****
TOTAL RUN TIME: 0 days 0 hours 1 minutes 1 seconds 907 msec
