                         Program Version 4.0.0.2 - RELEASE -
|  1> !aug-cc-pVDZ B3LYP NMR
|  2>
|  3> *xyzfile 0 1 guess.xyz
|  4>
|  5>
|  6>                          ****END OF INPUT****

CARTESIAN COORDINATES (ANGSTROEM)
---------------------------------
  C    -16.861290    1.882200    9.083200
  C    -15.776720    1.316420    8.411440
  C    -14.696660    2.114100    8.010270
  C    -14.720090    3.486330    8.292350
  C    -15.805610    4.053470    8.964860
  C    -16.867930    3.244520    9.354640
  O    -17.946810    3.756580   10.012890
  H    -17.810640    4.710720   10.130240
  H    -17.697230    1.262010    9.393140
  H    -13.892090    4.123370    7.989820
  H    -15.802650    5.118450    9.172850
  H    -15.778790    0.249150    8.202540
  C    -13.537060    1.493410    7.288950
  H    -12.773270    2.237660    7.040700
  H    -13.876000    1.035550    6.354120
  H    -13.068770    0.728190    7.916300

 Total Charge           Charge          ....    0
 Multiplicity           Mult            ....    1
 Number of Electrons    NEL             ....   58
 Basis Dimension        Dim             ....  256

ORBITAL ENERGIES
----------------

  NO   OCC          E(Eh)            E(eV)
   0   2.0000     -19.177794      -521.8543
   1   2.0000     -10.244046      -278.7547
   2   2.0000     -10.188034      -277.2305
   3   2.0000     -10.187549      -277.2173
   4   2.0000     -10.186509      -277.1890
   5   2.0000     -10.186206      -277.1807
   6   2.0000     -10.182389      -277.0769
   7   2.0000     -10.177387      -276.9408
   8   2.0000      -1.065989       -29.0070
   9   2.0000      -0.856151       -23.2971
  10   2.0000      -0.768428       -20.9100
  11   2.0000      -0.751092       -20.4382
  12   2.0000      -0.681409       -18.5421
  13   2.0000      -0.624413       -16.9911
  14   2.0000      -0.589913       -16.0524
  15   2.0000      -0.546081       -14.8596
  16   2.0000      -0.486303       -13.2330
  17   2.0000      -0.466563       -12.6958
  18   2.0000      -0.437268       -11.8987
  19   2.0000      -0.424664       -11.5557
  20   2.0000      -0.423825       -11.5329
  21   2.0000      -0.406685       -11.0664
  22   2.0000      -0.402185       -10.9440
  23   2.0000      -0.371833       -10.1181
  24   2.0000      -0.352316        -9.5870
  25   2.0000      -0.340773        -9.2729
  26   2.0000      -0.328107        -8.9283
  27   2.0000      -0.256352        -6.9757
  28   2.0000      -0.219455        -5.9717
  29   0.0000      -0.018154        -0.4940
  30   0.0000      -0.011832        -0.3220
  31   0.0000      -0.002531        -0.0689
  32   0.0000       0.000688         0.0187
  33   0.0000       0.009871         0.2686

MULLIKEN ATOMIC CHARGES
-----------------------
   0 C :    0.856319
   1 C :    1.181613
   2 C :    0.246443
   3 C :    1.058866
   4 C :    0.637404
   5 C :    0.043404
   6 O :   -0.568107
   7 H :    0.150451
   8 H :   -0.818416
   9 H :   -0.940056
  10 H :   -0.971396
  11 H :   -0.991118
  12 C :    0.786076
  13 H :   -0.430189
  14 H :   -0.125060
  15 H :   -0.116233
Sum of atomic charges:    0.0000000

LOEWDIN ATOMIC CHARGES
----------------------
   0 C :   -0.161301
   1 C :   -0.177122
   2 C :   -0.958244
   3 C :   -0.195111
   4 C :   -0.194831
   5 C :   -0.876444
   6 O :    0.528440
   7 H :    0.173978
   8 H :    0.304030
   9 H :    0.308151
  10 H :    0.299929
  11 H :    0.308276
  12 C :   -0.244964
  13 H :    0.281243
  14 H :    0.301924
  15 H :    0.302045

  Mayer bond orders larger than 0.1
B(  0-C ,  1-C ) :   2.2286 B(  0-C ,  2-C ) :  -0.8177 B(  0-C ,  4-C ) :  -0.1885
B(  0-C ,  5-C ) :   1.3286 B(  0-C ,  6-O ) :  -0.1469 B(  0-C ,  8-H ) :  -1.2076
B(  0-C , 11-H ) :   0.6166 B(  0-C , 12-C ) :   0.3787 B(  1-C ,  2-C ) :   0.8456
B(  1-C ,  3-C ) :  -0.7337 B(  1-C ,  4-C ) :   0.1655 B(  1-C ,  5-C ) :  -0.6164
B(  1-C ,  8-H ) :   0.2950 B(  1-C , 11-H ) :  -1.1869 B(  1-C , 12-C ) :  -0.8566
B(  2-C ,  3-C ) :   1.1853 B(  2-C ,  4-C ) :  -0.3936 B(  2-C ,  5-C ) :   0.8148
B(  2-C ,  8-H ) :  -0.1610 B(  2-C ,  9-H ) :   0.6713 B(  2-C , 11-H ) :   0.6479
B(  2-C , 12-C ) :   1.5254 B(  2-C , 13-H ) :   0.4970 B(  2-C , 14-H ) :   0.2239
B(  2-C , 15-H ) :   0.2349 B(  3-C ,  4-C ) :   1.3658 B(  3-C ,  5-C ) :  -0.3698
B(  3-C ,  9-H ) :  -1.0288 B(  3-C , 10-H ) :   0.3122 B(  3-C , 12-C ) :  -0.4055
B(  4-C ,  5-C ) :   0.9318 B(  4-C ,  6-O ) :   0.2271 B(  4-C ,  9-H ) :   0.3096
B(  4-C , 10-H ) :  -0.8551 B(  4-C , 11-H ) :   0.1051 B(  4-C , 12-C ) :   0.5519
B(  5-C ,  6-O ) :   0.3711 B(  5-C ,  8-H ) :   1.1013 B(  5-C ,  9-H ) :  -0.1947
B(  5-C , 10-H ) :   0.5630 B(  5-C , 11-H ) :  -0.3294 B(  6-O ,  7-H ) :   1.0277
B( 12-C , 13-H ) :   0.3490 B( 12-C , 14-H ) :   0.7918 B( 12-C , 15-H ) :   0.7750
B( 14-H , 15-H ) :  -0.1300

FINAL SINGLE POINT ENERGY      -346.616642357230

DIPOLE MOMENT
-------------
                                X             Y             Z
Electronic contribution:     -5.01137       2.28437       3.04075
Nuclear contribution   :      5.35527      -1.91936      -3.14489
                        -----------------------------------------
Total Dipole Moment    :      0.34390       0.36501      -0.10414
                        -----------------------------------------
Magnitude (a.u.)       :      0.51220
Magnitude (Debye)      :      1.30190

CHEMICAL SHIELDING SUMMARY (ppm)
--------------------------

  Nucleus  Element    Isotropic     Anisotropy
  -------  -------  ------------   ------------
      0       C           79.647        142.227
      1       C           62.540        159.400
      2       C           61.784        177.092
      3       C           63.787        146.961
      4       C           80.943        119.590
      5       C           39.842        131.421
      6       O          220.956         67.040
      7       H           27.804         12.203
      8       H           24.618          5.167
      9       H           24.451          6.154
     10       H           25.063          5.356
     11       H           24.263          6.652
     12       C          170.161         38.270
     13       H           29.684          6.819
     14       H           29.130          8.085
     15       H           29.097          7.712

                             ****ORCA TERMINATED NORMALLY****
TOTAL RUN TIME: 0 days 0 hours 15 minutes 9 seconds 848 msec
