                         Program Version 4.0.0.2 - RELEASE -
|  1> !cc-pvdz OLYP NMR
|  2>
|  3> *xyzfile 0 1 guess.xyz
|  4>
|  5>
|  6>                          ****END OF INPUT****

CARTESIAN COORDINATES (ANGSTROEM)
---------------------------------
  C    -16.099780    3.119650    8.933150
  C    -15.552520    4.506190    8.923140
  H    -15.461950    2.410220    9.472710
  H    -16.222930    2.699550    7.928370
  H    -17.086290    3.045960    9.405450
  N    -15.124780    5.583490    8.914060

 Total Charge           Charge          ....    0
 Multiplicity           Mult            ....    1
 Number of Electrons    NEL             ....   22
 Basis Dimension        Dim             ....   57

ORBITAL ENERGIES
----------------

  NO   OCC          E(Eh)            E(eV)
   0   2.0000     -14.004234      -381.0746
   1   2.0000      -9.968784      -271.2644
   2   2.0000      -9.952927      -270.8329
   3   2.0000      -0.823610       -22.4116
   4   2.0000      -0.699839       -19.0436
   5   2.0000      -0.467617       -12.7245
   6   2.0000      -0.402793       -10.9605
   7   2.0000      -0.402653       -10.9567
   8   2.0000      -0.301862        -8.2141
   9   2.0000      -0.285074        -7.7572
  10   2.0000      -0.285012        -7.7556
  11   0.0000       0.004873         0.1326
  12   0.0000       0.005255         0.1430
  13   0.0000       0.022090         0.6011
  14   0.0000       0.099970         2.7203
  15   0.0000       0.101021         2.7489

MULLIKEN ATOMIC CHARGES
-----------------------
   0 C :    0.057703
   1 C :   -0.096264
   2 H :    0.060862
   3 H :    0.058230
   4 H :    0.058032
   5 N :   -0.138562
Sum of atomic charges:   -0.0000000

LOEWDIN ATOMIC CHARGES
----------------------
   0 C :   -0.078940
   1 C :   -0.086086
   2 H :    0.057057
   3 H :    0.056536
   4 H :    0.056694
   5 N :   -0.005261

  Mayer bond orders larger than 0.1
B(  0-C ,  1-C ) :   1.0913 B(  0-C ,  2-H ) :   0.9445 B(  0-C ,  3-H ) :   0.9446
B(  0-C ,  4-H ) :   0.9443 B(  1-C ,  5-N ) :   3.1538

FINAL SINGLE POINT ENERGY      -132.719143392121

DIPOLE MOMENT
-------------
                                X             Y             Z
Electronic contribution:      1.26480       3.20869      -0.02198
Nuclear contribution   :     -1.79427      -4.54659       0.03267
                        -----------------------------------------
Total Dipole Moment    :     -0.52947      -1.33790       0.01069
                        -----------------------------------------
Magnitude (a.u.)       :      1.43890
Magnitude (Debye)      :      3.65739

CHEMICAL SHIELDING SUMMARY (ppm)
--------------------------

  Nucleus  Element    Isotropic     Anisotropy
  -------  -------  ------------   ------------
      0       C          188.880         27.969
      1       C           90.381        296.207
      2       H           29.896          8.977
      3       H           29.895          9.040
      4       H           29.886          8.977
      5       N            1.401        472.232

                             ****ORCA TERMINATED NORMALLY****
TOTAL RUN TIME: 0 days 0 hours 0 minutes 7 seconds 65 msec
