                         Program Version 4.0.0.2 - RELEASE -
|  1> !aug-cc-pVDZ B3LYP NMR
|  2>
|  3> *xyzfile 0 1 guess.xyz
|  4>
|  5>
|  6>                          ****END OF INPUT****

CARTESIAN COORDINATES (ANGSTROEM)
---------------------------------
  C     -5.642670    2.695000   -0.275860
  N     -5.945500    1.592440   -0.436880
  C     -5.279630    4.135020   -0.048700
  C     -3.892140    4.583340   -0.804690
  H     -5.263580    4.286560    1.051470
  H     -6.166320    4.731720   -0.349450
  H     -2.990370    4.021870   -0.492910
  H     -3.593680    5.642630   -0.670970
  H     -3.901970    4.456970   -1.904450

 Total Charge           Charge          ....    0
 Multiplicity           Mult            ....    1
 Number of Electrons    NEL             ....   30
 Basis Dimension        Dim             ....  137

ORBITAL ENERGIES
----------------

  NO   OCC          E(Eh)            E(eV)
   0   2.0000     -14.333563      -390.0361
   1   2.0000     -10.258023      -279.1350
   2   2.0000     -10.230345      -278.3818
   3   2.0000     -10.218709      -278.0652
   4   2.0000      -0.911770       -24.8105
   5   2.0000      -0.789695       -21.4887
   6   2.0000      -0.683067       -18.5872
   7   2.0000      -0.511401       -13.9159
   8   2.0000      -0.468537       -12.7495
   9   2.0000      -0.432659       -11.7732
  10   2.0000      -0.399786       -10.8787
  11   2.0000      -0.390836       -10.6352
  12   2.0000      -0.363048        -9.8790
  13   2.0000      -0.333632        -9.0786
  14   2.0000      -0.330259        -8.9868
  15   0.0000      -0.020993        -0.5713
  16   0.0000      -0.001276        -0.0347
  17   0.0000       0.010612         0.2888
  18   0.0000       0.017543         0.4774
  19   0.0000       0.027072         0.7367

MULLIKEN ATOMIC CHARGES
-----------------------
   0 C :   -0.198603
   1 N :   -0.182037
   2 C :    0.750591
   3 C :    0.931580
   4 H :   -0.202881
   5 H :   -0.213164
   6 H :   -0.293978
   7 H :   -0.330174
   8 H :   -0.261335
Sum of atomic charges:   -0.0000000

LOEWDIN ATOMIC CHARGES
----------------------
   0 C :   -0.240316
   1 N :    0.164307
   2 C :   -0.824791
   3 C :   -0.477392
   4 H :    0.314658
   5 H :    0.314155
   6 H :    0.252976
   7 H :    0.242598
   8 H :    0.253804

  Mayer bond orders larger than 0.1
B(  0-C ,  1-N ) :   2.7088 B(  0-C ,  2-C ) :   0.8493 B(  2-C ,  3-C ) :   1.0297
B(  2-C ,  4-H ) :   0.8098 B(  2-C ,  5-H ) :   0.7892 B(  3-C ,  6-H ) :   0.9124
B(  3-C ,  7-H ) :   0.8310 B(  3-C ,  8-H ) :   0.9169

FINAL SINGLE POINT ENERGY      -171.966400994885

DIPOLE MOMENT
-------------
                                X             Y             Z
Electronic contribution:     -3.06022      -4.57585       0.51771
Nuclear contribution   :      3.56232       6.13868      -0.34079
                        -----------------------------------------
Total Dipole Moment    :      0.50210       1.56283       0.17692
                        -----------------------------------------
Magnitude (a.u.)       :      1.65101
Magnitude (Debye)      :      4.19654

CHEMICAL SHIELDING SUMMARY (ppm)
--------------------------

  Nucleus  Element    Isotropic     Anisotropy
  -------  -------  ------------   ------------
      0       C           77.644        318.984
      1       N            1.152        456.947
      2       C          172.594         24.431
      3       C          174.365         32.097
      4       H           28.867          7.942
      5       H           28.889          7.837
      6       H           29.898          8.264
      7       H           30.094          9.871
      8       H           29.935          8.182

                             ****ORCA TERMINATED NORMALLY****
TOTAL RUN TIME: 0 days 0 hours 1 minutes 30 seconds 32 msec
