                         Program Version 4.0.0.2 - RELEASE -
|  1> !cc-pvdz BP86 NMR
|  2>
|  3> *xyzfile 0 1 guess.xyz
|  4>
|  5>
|  6>                          ****END OF INPUT****

CARTESIAN COORDINATES (ANGSTROEM)
---------------------------------
  C     -9.193100    5.490760    5.303500
  C    -10.201150    4.432020    5.643920
  H     -9.262540    6.357860    5.992160
  H     -9.363890    5.859730    4.288040
  H     -8.191010    5.084200    5.410140
  O    -11.242190    4.752200    6.254110
  O     -9.994630    3.151940    5.260310
  H     -9.398250    2.499910    4.809160

 Total Charge           Charge          ....    0
 Multiplicity           Mult            ....    1
 Number of Electrons    NEL             ....   32
 Basis Dimension        Dim             ....   76

ORBITAL ENERGIES
----------------

  NO   OCC          E(Eh)            E(eV)
   0   2.0000     -18.818918      -512.0888
   1   2.0000     -18.759766      -510.4792
   2   2.0000     -10.043082      -273.2861
   3   2.0000      -9.925748      -270.0933
   4   2.0000      -0.986628       -26.8475
   5   2.0000      -0.905755       -24.6469
   6   2.0000      -0.682195       -18.5635
   7   2.0000      -0.596690       -16.2368
   8   2.0000      -0.446627       -12.1533
   9   2.0000      -0.414257       -11.2725
  10   2.0000      -0.392764       -10.6876
  11   2.0000      -0.354148        -9.6369
  12   2.0000      -0.342166        -9.3108
  13   2.0000      -0.281618        -7.6632
  14   2.0000      -0.260816        -7.0972
  15   2.0000      -0.213090        -5.7985
  16   0.0000      -0.030233        -0.8227
  17   0.0000      -0.001770        -0.0482
  18   0.0000       0.060137         1.6364
  19   0.0000       0.096051         2.6137
  20   0.0000       0.114291         3.1100

MULLIKEN ATOMIC CHARGES
-----------------------
   0 C :   -0.048013
   1 C :    0.121840
   2 H :    0.068105
   3 H :    0.071491
   4 H :    0.033611
   5 O :   -0.226185
   6 O :   -0.204168
   7 H :    0.183319
Sum of atomic charges:   -0.0000000

LOEWDIN ATOMIC CHARGES
----------------------
   0 C :   -0.099418
   1 C :   -0.142205
   2 H :    0.053966
   3 H :    0.052214
   4 H :    0.032449
   5 O :   -0.050331
   6 O :    0.063620
   7 H :    0.089705

  Mayer bond orders larger than 0.1
B(  0-C ,  1-C ) :   1.0441 B(  0-C ,  2-H ) :   0.9565 B(  0-C ,  3-H ) :   0.9458
B(  0-C ,  4-H ) :   0.9505 B(  1-C ,  5-O ) :   2.1132 B(  1-C ,  6-O ) :   1.2061
B(  5-O ,  6-O ) :   0.1115 B(  6-O ,  7-H ) :   0.9267

FINAL SINGLE POINT ENERGY      -229.068455460850

DIPOLE MOMENT
-------------
                                X             Y             Z
Electronic contribution:     -2.73655      -2.28382       0.97318
Nuclear contribution   :      4.07987       1.96591      -1.78345
                        -----------------------------------------
Total Dipole Moment    :      1.34331      -0.31791      -0.81027
                        -----------------------------------------
Magnitude (a.u.)       :      1.60066
Magnitude (Debye)      :      4.06854

CHEMICAL SHIELDING SUMMARY (ppm)
--------------------------

  Nucleus  Element    Isotropic     Anisotropy
  -------  -------  ------------   ------------
      0       C          170.541         41.510
      1       C           33.680         72.779
      2       H           28.997          6.414
      3       H           29.338          5.692
      4       H           30.207          6.261
      5       O         -135.313       -475.698
      6       O          152.719        151.221
      7       H           22.307         11.096

                             ****ORCA TERMINATED NORMALLY****
TOTAL RUN TIME: 0 days 0 hours 0 minutes 11 seconds 825 msec
