                         Program Version 4.0.0.2 - RELEASE -
|  1> !cc-pvdz OLYP NMR
|  2>
|  3> *xyzfile 0 1 guess.xyz
|  4>
|  5>
|  6>                          ****END OF INPUT****

CARTESIAN COORDINATES (ANGSTROEM)
---------------------------------
  C    -12.484130   -1.238870    7.338640
  C    -12.433610    0.055840    6.518580
  H    -12.810520   -1.051530    8.367000
  H    -11.500790   -1.718880    7.389660
  H    -13.196770   -1.948420    6.903570
  C    -11.553670    1.104750    7.208880
  H    -11.890840    1.302010    8.232030
  H    -11.590990    2.059360    6.672320
  H    -10.510000    0.776820    7.265160
  C    -11.839560   -0.256900    5.137650
  H    -10.821490   -0.653560    5.211960
  H    -11.815170    0.642740    4.511610
  H    -12.457650   -0.988490    4.604180
  O    -13.751830    0.559030    6.253580
  C    -14.522340    0.966020    7.373790
  H    -14.678470    0.142610    8.074620
  H    -15.503190    1.283220    7.007640
  H    -14.064680    1.819650    7.879810

 Total Charge           Charge          ....    0
 Multiplicity           Mult            ....    1
 Number of Electrons    NEL             ....   50
 Basis Dimension        Dim             ....  144

ORBITAL ENERGIES
----------------

  NO   OCC          E(Eh)            E(eV)
   0   2.0000     -18.761402      -510.5237
   1   2.0000      -9.964261      -271.1413
   2   2.0000      -9.943631      -270.5799
   3   2.0000      -9.898709      -269.3576
   4   2.0000      -9.898318      -269.3469
   5   2.0000      -9.895677      -269.2751
   6   2.0000      -0.936030       -25.4707
   7   2.0000      -0.720900       -19.6167
   8   2.0000      -0.624465       -16.9925
   9   2.0000      -0.619243       -16.8505
  10   2.0000      -0.601684       -16.3727
  11   2.0000      -0.487448       -13.2641
  12   2.0000      -0.426064       -11.5938
  13   2.0000      -0.403706       -10.9854
  14   2.0000      -0.399052       -10.8587
  15   2.0000      -0.373426       -10.1614
  16   2.0000      -0.355646        -9.6776
  17   2.0000      -0.343888        -9.3577
  18   2.0000      -0.329969        -8.9789
  19   2.0000      -0.322532        -8.7765
  20   2.0000      -0.309162        -8.4127
  21   2.0000      -0.291047        -7.9198
  22   2.0000      -0.290671        -7.9096
  23   2.0000      -0.244388        -6.6501
  24   2.0000      -0.195317        -5.3149
  25   0.0000       0.038954         1.0600
  26   0.0000       0.061151         1.6640
  27   0.0000       0.082278         2.2389
  28   0.0000       0.085781         2.3342
  29   0.0000       0.099961         2.7201

MULLIKEN ATOMIC CHARGES
-----------------------
   0 C :    0.114040
   1 C :   -0.196744
   2 H :   -0.001547
   3 H :    0.000824
   4 H :    0.003363
   5 C :    0.114444
   6 H :   -0.003678
   7 H :    0.002390
   8 H :    0.000895
   9 C :    0.115313
  10 H :   -0.000785
  11 H :   -0.000673
  12 H :    0.000410
  13 O :   -0.322438
  14 C :    0.190954
  15 H :   -0.006084
  16 H :   -0.000007
  17 H :   -0.010675
Sum of atomic charges:    0.0000000

LOEWDIN ATOMIC CHARGES
----------------------
   0 C :   -0.050013
   1 C :   -0.073128
   2 H :    0.018616
   3 H :    0.025592
   4 H :    0.024088
   5 C :   -0.049387
   6 H :    0.018755
   7 H :    0.023921
   8 H :    0.025747
   9 C :   -0.041221
  10 H :    0.023213
  11 H :    0.022284
  12 H :    0.022701
  13 O :    0.002222
  14 C :   -0.019109
  15 H :    0.003133
  16 H :    0.020252
  17 H :    0.002334

  Mayer bond orders larger than 0.1
B(  0-C ,  1-C ) :   1.0419 B(  0-C ,  2-H ) :   0.9486 B(  0-C ,  3-H ) :   0.9531
B(  0-C ,  4-H ) :   0.9558 B(  1-C ,  5-C ) :   1.0401 B(  1-C ,  9-C ) :   1.0642
B(  1-C , 13-O ) :   0.9939 B(  5-C ,  6-H ) :   0.9498 B(  5-C ,  7-H ) :   0.9556
B(  5-C ,  8-H ) :   0.9538 B(  9-C , 10-H ) :   0.9541 B(  9-C , 11-H ) :   0.9568
B(  9-C , 12-H ) :   0.9566 B( 13-O , 14-C ) :   1.0577 B( 14-C , 15-H ) :   0.9575
B( 14-C , 16-H ) :   0.9761 B( 14-C , 17-H ) :   0.9583

FINAL SINGLE POINT ENERGY      -272.856502798292

DIPOLE MOMENT
-------------
                                X             Y             Z
Electronic contribution:     -2.21714       0.72827      -1.78553
Nuclear contribution   :      2.37446      -0.75662       2.17926
                        -----------------------------------------
Total Dipole Moment    :      0.15732      -0.02835       0.39373
                        -----------------------------------------
Magnitude (a.u.)       :      0.42494
Magnitude (Debye)      :      1.08011

CHEMICAL SHIELDING SUMMARY (ppm)
--------------------------

  Nucleus  Element    Isotropic     Anisotropy
  -------  -------  ------------   ------------
      0       C          168.398         38.179
      1       C          118.591         60.432
      2       H           29.852          6.869
      3       H           30.524          7.684
      4       H           30.585          8.294
      5       C          168.043         37.610
      6       H           29.881          6.782
      7       H           30.535          8.374
      8       H           30.500          7.654
      9       C          161.412         46.122
     10       H           30.463          8.247
     11       H           30.289          7.679
     12       H           30.242          7.657
     13       O          271.282         84.529
     14       C          144.490         71.094
     15       H           28.386          8.734
     16       H           28.358          8.810
     17       H           28.312          8.965

                             ****ORCA TERMINATED NORMALLY****
TOTAL RUN TIME: 0 days 0 hours 1 minutes 28 seconds 327 msec
