                         Program Version 4.0.0.2 - RELEASE -
|  1> !cc-pvdz OLYP NMR
|  2>
|  3> *xyzfile 0 1 guess.xyz
|  4>
|  5>
|  6>                          ****END OF INPUT****

CARTESIAN COORDINATES (ANGSTROEM)
---------------------------------
  C    -11.257270    3.613040    6.717770
  C    -11.216050    5.157860    6.948300
  H    -10.579860    3.120280    6.015910
  H    -12.269990    3.373740    6.341600
  H    -11.219800    3.069430    7.675670
  C    -10.074170    6.170000    6.610600
  H     -9.331790    5.953500    5.838090
  H     -9.551660    6.511030    7.518280
  H    -10.570820    7.093570    6.255700
  O    -12.189840    5.631450    7.520470

 Total Charge           Charge          ....    0
 Multiplicity           Mult            ....    1
 Number of Electrons    NEL             ....   32
 Basis Dimension        Dim             ....   86

ORBITAL ENERGIES
----------------

  NO   OCC          E(Eh)            E(eV)
   0   2.0000     -18.755489      -510.3628
   1   2.0000     -10.005307      -272.2583
   2   2.0000      -9.921930      -269.9894
   3   2.0000      -9.921579      -269.9799
   4   2.0000      -0.948629       -25.8135
   5   2.0000      -0.671755       -18.2794
   6   2.0000      -0.642831       -17.4923
   7   2.0000      -0.478327       -13.0159
   8   2.0000      -0.405410       -11.0318
   9   2.0000      -0.392974       -10.6934
  10   2.0000      -0.378317       -10.2945
  11   2.0000      -0.350910        -9.5487
  12   2.0000      -0.335633        -9.1330
  13   2.0000      -0.323344        -8.7986
  14   2.0000      -0.292731        -7.9656
  15   2.0000      -0.194045        -5.2802
  16   0.0000      -0.052129        -1.4185
  17   0.0000       0.039460         1.0737
  18   0.0000       0.073823         2.0088
  19   0.0000       0.089172         2.4265
  20   0.0000       0.109704         2.9852

MULLIKEN ATOMIC CHARGES
-----------------------
   0 C :    0.043817
   1 C :   -0.031470
   2 H :    0.006099
   3 H :    0.031940
   4 H :    0.040236
   5 C :    0.043271
   6 H :    0.006513
   7 H :    0.038762
   8 H :    0.032772
   9 O :   -0.211941
Sum of atomic charges:    0.0000000

LOEWDIN ATOMIC CHARGES
----------------------
   0 C :   -0.084307
   1 C :   -0.041805
   2 H :    0.020558
   3 H :    0.045968
   4 H :    0.046790
   5 C :   -0.084547
   6 H :    0.020990
   7 H :    0.046159
   8 H :    0.045708
   9 O :   -0.015513

  Mayer bond orders larger than 0.1
B(  0-C ,  1-C ) :   1.0170 B(  0-C ,  2-H ) :   0.9547 B(  0-C ,  3-H ) :   0.9492
B(  0-C ,  4-H ) :   0.9468 B(  1-C ,  5-C ) :   1.0185 B(  1-C ,  9-O ) :   2.1244
B(  5-C ,  6-H ) :   0.9542 B(  5-C ,  7-H ) :   0.9462 B(  5-C ,  8-H ) :   0.9501

FINAL SINGLE POINT ENERGY      -193.082865735894

DIPOLE MOMENT
-------------
                                X             Y             Z
Electronic contribution:     -2.69248       1.30261       1.56829
Nuclear contribution   :      3.38454      -1.64148      -1.93575
                        -----------------------------------------
Total Dipole Moment    :      0.69206      -0.33887      -0.36746
                        -----------------------------------------
Magnitude (a.u.)       :      0.85370
Magnitude (Debye)      :      2.16994

CHEMICAL SHIELDING SUMMARY (ppm)
--------------------------

  Nucleus  Element    Isotropic     Anisotropy
  -------  -------  ------------   ------------
      0       C          164.313         49.256
      1       C           -3.230        150.108
      2       H           29.457          5.451
      3       H           29.372          5.549
      4       H           29.276          5.782
      5       C          164.012         49.896
      6       H           29.439          5.484
      7       H           29.248          5.713
      8       H           29.346          5.571
      9       O         -329.582       -845.380

                             ****ORCA TERMINATED NORMALLY****
TOTAL RUN TIME: 0 days 0 hours 0 minutes 14 seconds 545 msec
