                         Program Version 4.0.0.2 - RELEASE -
|  1> !cc-pvdz OLYP NMR
|  2>
|  3> *xyzfile 0 1 guess.xyz
|  4>
|  5>
|  6>                          ****END OF INPUT****

CARTESIAN COORDINATES (ANGSTROEM)
---------------------------------
  C    -15.339890    3.494010    8.628400
  C    -14.234270    3.074250    7.788380
  C    -13.123110    3.850910    7.512750
  C    -13.144620    5.166900    7.957430
  C    -14.331070    5.759140    8.531860
  C    -15.443270    4.890350    8.944420
  O    -16.542820    5.467840    9.616940
  C    -11.932280    3.274350    6.793740
  H    -11.189450    4.041220    6.548010
  H    -12.243430    2.806140    5.851910
  H    -11.442800    2.519560    7.420840
  C    -16.215620    2.306650    9.123610
  C    -14.249340    7.338540    8.543720
  C    -15.607800    8.025720    8.336420
  H    -16.153090    7.580280    7.498920
  H    -15.479510    9.093160    8.106900
  H    -16.226050    7.988170    9.234550
  C    -13.353920    7.903490    7.371290
  H    -13.602230    7.431910    6.412730
  H    -12.279510    7.766410    7.552900
  H    -13.480810    8.986570    7.242150
  C    -13.614460    7.855460    9.849940
  H    -14.237440    7.621960   10.717140
  H    -13.491130    8.947150    9.815460
  H    -12.619400    7.427600   10.024110
  C    -16.860110    2.522390   10.503570
  H    -16.176320    3.014800   11.201360
  H    -17.146670    1.564040   10.956800
  H    -17.790950    3.088670   10.436560
  C    -17.320260    1.986610    8.100420
  H    -18.040720    2.805600    8.012830
  H    -17.872220    1.089880    8.407750
  H    -16.914790    1.788770    7.100760
  C    -15.361560    0.999670    9.294450
  H    -14.424420    1.198370    9.829310
  H    -15.116880    0.528010    8.334590
  H    -15.902280    0.229850    9.855150
  H    -14.203540    2.061900    7.371350
  H    -12.230440    5.735870    7.783580
  H    -17.341760    5.020960    9.940660

 Total Charge           Charge          ....    0
 Multiplicity           Mult            ....    1
 Number of Electrons    NEL             ....  122
 Basis Dimension        Dim             ....  344

ORBITAL ENERGIES
----------------

  NO   OCC          E(Eh)            E(eV)
   0   2.0000     -18.787288      -511.2281
   1   2.0000      -9.979633      -271.5596
   2   2.0000      -9.939450      -270.4662
   3   2.0000      -9.928914      -270.1795
   4   2.0000      -9.922071      -269.9933
   5   2.0000      -9.920098      -269.9396
   6   2.0000      -9.908095      -269.6130
   7   2.0000      -9.905253      -269.5356
   8   2.0000      -9.903222      -269.4804
   9   2.0000      -9.902284      -269.4549
  10   2.0000      -9.901455      -269.4323
  11   2.0000      -9.899798      -269.3872
  12   2.0000      -9.899071      -269.3674
  13   2.0000      -9.894138      -269.2332
  14   2.0000      -9.891154      -269.1520
  15   2.0000      -9.885017      -268.9850
  16   2.0000      -0.942071       -25.6350
  17   2.0000      -0.769426       -20.9372
  18   2.0000      -0.743527       -20.2324
  19   2.0000      -0.723914       -19.6987
  20   2.0000      -0.679656       -18.4944
  21   2.0000      -0.644885       -17.5482
  22   2.0000      -0.620748       -16.8914
  23   2.0000      -0.616745       -16.7825
  24   2.0000      -0.610116       -16.6021
  25   2.0000      -0.604228       -16.4419
  26   2.0000      -0.598417       -16.2838
  27   2.0000      -0.549549       -14.9540
  28   2.0000      -0.536331       -14.5943
  29   2.0000      -0.501912       -13.6577
  30   2.0000      -0.462837       -12.5944
  31   2.0000      -0.459846       -12.5130
  32   2.0000      -0.414367       -11.2755
  33   2.0000      -0.405424       -11.0322
  34   2.0000      -0.391807       -10.6616
  35   2.0000      -0.389586       -10.6012
  36   2.0000      -0.381197       -10.3729
  37   2.0000      -0.376083       -10.2337
  38   2.0000      -0.368611       -10.0304
  39   2.0000      -0.363298        -9.8859
  40   2.0000      -0.361379        -9.8336
  41   2.0000      -0.348072        -9.4715
  42   2.0000      -0.336454        -9.1554
  43   2.0000      -0.334675        -9.1070
  44   2.0000      -0.329147        -8.9565
  45   2.0000      -0.324003        -8.8166
  46   2.0000      -0.320269        -8.7150
  47   2.0000      -0.315133        -8.5752
  48   2.0000      -0.311194        -8.4680
  49   2.0000      -0.303045        -8.2463
  50   2.0000      -0.298239        -8.1155
  51   2.0000      -0.292216        -7.9516
  52   2.0000      -0.289068        -7.8659
  53   2.0000      -0.282560        -7.6889
  54   2.0000      -0.275827        -7.5056
  55   2.0000      -0.273844        -7.4517
  56   2.0000      -0.261544        -7.1170
  57   2.0000      -0.255422        -6.9504
  58   2.0000      -0.245196        -6.6721
  59   2.0000      -0.187480        -5.1016
  60   2.0000      -0.172444        -4.6924
  61   0.0000      -0.032204        -0.8763
  62   0.0000      -0.004652        -0.1266
  63   0.0000       0.014158         0.3853
  64   0.0000       0.044157         1.2016
  65   0.0000       0.053902         1.4667

MULLIKEN ATOMIC CHARGES
-----------------------
   0 C :    0.067977
   1 C :    0.075273
   2 C :   -0.161412
   3 C :    0.091017
   4 C :    0.052501
   5 C :    0.007437
   6 O :   -0.229182
   7 C :    0.118439
   8 H :   -0.001875
   9 H :    0.018767
  10 H :    0.026089
  11 C :   -0.410127
  12 C :   -0.380232
  13 C :    0.139760
  14 H :   -0.005279
  15 H :   -0.009872
  16 H :    0.003429
  17 C :    0.102057
  18 H :    0.004482
  19 H :    0.000290
  20 H :   -0.002594
  21 C :    0.137684
  22 H :    0.000513
  23 H :   -0.005476
  24 H :   -0.007287
  25 C :    0.122645
  26 H :    0.013943
  27 H :    0.002320
  28 H :   -0.022207
  29 C :    0.148662
  30 H :   -0.003525
  31 H :   -0.007327
  32 H :   -0.001004
  33 C :    0.123283
  34 H :    0.009203
  35 H :   -0.000464
  36 H :   -0.005813
  37 H :   -0.077362
  38 H :   -0.066840
  39 H :    0.132108
Sum of atomic charges:    0.0000000

LOEWDIN ATOMIC CHARGES
----------------------
   0 C :   -0.040870
   1 C :   -0.015101
   2 C :   -0.067792
   3 C :   -0.016478
   4 C :   -0.015282
   5 C :   -0.031529
   6 O :    0.037195
   7 C :   -0.042886
   8 H :    0.026215
   9 H :    0.031229
  10 H :    0.032105
  11 C :   -0.062140
  12 C :   -0.053929
  13 C :   -0.040947
  14 H :    0.020579
  15 H :    0.019181
  16 H :    0.017203
  17 C :   -0.040432
  18 H :    0.021079
  19 H :    0.015468
  20 H :    0.020719
  21 C :   -0.038284
  22 H :    0.020250
  23 H :    0.020574
  24 H :    0.018909
  25 C :   -0.041054
  26 H :    0.025750
  27 H :    0.027224
  28 H :    0.009140
  29 C :   -0.035500
  30 H :    0.017625
  31 H :    0.020508
  32 H :    0.022613
  33 C :   -0.034405
  34 H :    0.024100
  35 H :    0.017796
  36 H :    0.019014
  37 H :    0.019437
  38 H :    0.021566
  39 H :    0.051149

  Mayer bond orders larger than 0.1
B(  0-C ,  1-C ) :   1.3541 B(  0-C ,  5-C ) :   1.2629 B(  0-C , 11-C ) :   0.9580
B(  1-C ,  2-C ) :   1.4426 B(  1-C , 37-H ) :   0.9124 B(  2-C ,  3-C ) :   1.4115
B(  2-C ,  7-C ) :   1.1266 B(  3-C ,  4-C ) :   1.3933 B(  3-C , 38-H ) :   0.9094
B(  4-C ,  5-C ) :   1.2680 B(  4-C , 12-C ) :   0.9571 B(  5-C ,  6-O ) :   1.1517
B(  6-O , 39-H ) :   0.9724 B(  7-C ,  8-H ) :   0.9419 B(  7-C ,  9-H ) :   0.9434
B(  7-C , 10-H ) :   0.9428 B( 11-C , 25-C ) :   1.0667 B( 11-C , 29-C ) :   1.0308
B( 11-C , 33-C ) :   1.0566 B( 12-C , 13-C ) :   1.0648 B( 12-C , 17-C ) :   1.0498
B( 12-C , 21-C ) :   1.0327 B( 13-C , 14-H ) :   0.9563 B( 13-C , 15-H ) :   0.9494
B( 13-C , 16-H ) :   0.9531 B( 17-C , 18-H ) :   0.9583 B( 17-C , 19-H ) :   0.9539
B( 17-C , 20-H ) :   0.9515 B( 21-C , 22-H ) :   0.9584 B( 21-C , 23-H ) :   0.9576
B( 21-C , 24-H ) :   0.9557 B( 25-C , 26-H ) :   0.9563 B( 25-C , 27-H ) :   0.9495
B( 25-C , 28-H ) :   0.9439 B( 29-C , 30-H ) :   0.9556 B( 29-C , 31-H ) :   0.9572
B( 29-C , 32-H ) :   0.9581 B( 33-C , 34-H ) :   0.9586 B( 33-C , 35-H ) :   0.9543
B( 33-C , 36-H ) :   0.9487

FINAL SINGLE POINT ENERGY      -660.982072937787

DIPOLE MOMENT
-------------
                                X             Y             Z
Electronic contribution:     -0.48766       0.26919       0.27631
Nuclear contribution   :      0.19172      -0.78220      -0.15775
                        -----------------------------------------
Total Dipole Moment    :     -0.29594      -0.51301       0.11856
                        -----------------------------------------
Magnitude (a.u.)       :      0.60400
Magnitude (Debye)      :      1.53526

CHEMICAL SHIELDING SUMMARY (ppm)
--------------------------

  Nucleus  Element    Isotropic     Anisotropy
  -------  -------  ------------   ------------
      0       C           56.848        143.687
      1       C           64.568        143.940
      2       C           67.984        159.976
      3       C           61.982        136.030
      4       C           52.292        143.722
      5       C           38.949         87.454
      6       O          213.865         69.989
      7       C          170.530         36.427
      8       H           29.714          7.009
      9       H           29.310          7.941
     10       H           28.966          8.283
     11       C          149.466         19.715
     12       C          146.026         22.060
     13       C          161.642         39.906
     14       H           30.017          6.891
     15       H           30.506          8.340
     16       H           29.477          7.371
     17       C          152.606         48.717
     18       H           30.077          6.916
     19       H           29.627          7.448
     20       H           30.487          7.963
     21       C          160.744         40.894
     22       H           30.006          7.585
     23       H           30.211          8.926
     24       H           30.212          7.078
     25       C          161.148         42.325
     26       H           29.729          6.579
     27       H           30.182          8.207
     28       H           30.384          7.271
     29       C          159.457         41.487
     30       H           30.248          7.419
     31       H           30.093          8.820
     32       H           30.100          7.065
     33       C          152.813         47.839
     34       H           30.012          6.943
     35       H           29.550          7.631
     36       H           30.662          8.191
     37       H           24.267         12.319
     38       H           24.083         11.893
     39       H           26.835         11.502

                             ****ORCA TERMINATED NORMALLY****
TOTAL RUN TIME: 0 days 0 hours 15 minutes 13 seconds 775 msec
