                         Program Version 4.0.0.2 - RELEASE -
|  1> !cc-pvdz OLYP NMR
|  2>
|  3> *xyzfile 0 1 guess.xyz
|  4>
|  5>
|  6>                          ****END OF INPUT****

CARTESIAN COORDINATES (ANGSTROEM)
---------------------------------
  C    -19.737300    2.306740   10.656530
  C    -18.440980    2.316970   10.021940
  C    -17.705650    3.481450    9.863770
  C    -18.272370    4.634440   10.389520
  C    -19.568480    4.618590   11.062050
  C    -20.364960    3.443420   11.214610
  H    -20.243230    1.345590   10.671550
  H    -19.881580    5.594420   11.431750
  H    -17.691190    5.556960   10.269040
  H    -16.735630    3.483370    9.348210
  H    -18.002700    1.392910    9.638850
  C    -21.751990    3.314180   11.860660
  N    -22.801950    3.130990   12.316460

 Total Charge           Charge          ....    0
 Multiplicity           Mult            ....    1
 Number of Electrons    NEL             ....   54
 Basis Dimension        Dim             ....  137

ORBITAL ENERGIES
----------------

  NO   OCC          E(Eh)            E(eV)
   0   2.0000     -14.014082      -381.3426
   1   2.0000      -9.984656      -271.6963
   2   2.0000      -9.960935      -271.0508
   3   2.0000      -9.955591      -270.9054
   4   2.0000      -9.950012      -270.7536
   5   2.0000      -9.945570      -270.6327
   6   2.0000      -9.942231      -270.5419
   7   2.0000      -9.939970      -270.4803
   8   2.0000      -0.831478       -22.6257
   9   2.0000      -0.796557       -21.6754
  10   2.0000      -0.716509       -19.4972
  11   2.0000      -0.685207       -18.6454
  12   2.0000      -0.582661       -15.8550
  13   2.0000      -0.566196       -15.4070
  14   2.0000      -0.502592       -13.6762
  15   2.0000      -0.455546       -12.3960
  16   2.0000      -0.420623       -11.4457
  17   2.0000      -0.412125       -11.2145
  18   2.0000      -0.372947       -10.1484
  19   2.0000      -0.351329        -9.5601
  20   2.0000      -0.339757        -9.2453
  21   2.0000      -0.318439        -8.6652
  22   2.0000      -0.308490        -8.3944
  23   2.0000      -0.306461        -8.3392
  24   2.0000      -0.294730        -8.0200
  25   2.0000      -0.246934        -6.7194
  26   2.0000      -0.233970        -6.3667
  27   0.0000      -0.075920        -2.0659
  28   0.0000      -0.059661        -1.6234
  29   0.0000      -0.002669        -0.0726
  30   0.0000       0.017337         0.4718
  31   0.0000       0.033232         0.9043

MULLIKEN ATOMIC CHARGES
-----------------------
   0 C :    0.095682
   1 C :    0.057387
   2 C :    0.063041
   3 C :    0.048357
   4 C :    0.060579
   5 C :   -0.004676
   6 H :   -0.038152
   7 H :   -0.041929
   8 H :   -0.032452
   9 H :   -0.038144
  10 H :   -0.038399
  11 C :   -0.010955
  12 N :   -0.120339
Sum of atomic charges:   -0.0000000

LOEWDIN ATOMIC CHARGES
----------------------
   0 C :    0.014634
   1 C :   -0.011389
   2 C :   -0.013582
   3 C :   -0.011302
   4 C :    0.013673
   5 C :   -0.077232
   6 H :    0.028137
   7 H :    0.026394
   8 H :    0.028775
   9 H :    0.031761
  10 H :    0.027671
  11 C :   -0.067392
  12 N :    0.009855

  Mayer bond orders larger than 0.1
B(  0-C ,  1-C ) :   1.4352 B(  0-C ,  5-C ) :   1.3652 B(  0-C ,  6-H ) :   0.9422
B(  1-C ,  2-C ) :   1.4421 B(  1-C , 10-H ) :   0.9381 B(  2-C ,  3-C ) :   1.4374
B(  2-C ,  9-H ) :   0.9432 B(  3-C ,  4-C ) :   1.4278 B(  3-C ,  8-H ) :   0.9400
B(  4-C ,  5-C ) :   1.3462 B(  4-C ,  7-H ) :   0.9518 B(  5-C , 11-C ) :   0.9494
B( 11-C , 12-N ) :   3.1391

FINAL SINGLE POINT ENERGY      -324.393113131049

DIPOLE MOMENT
-------------
                                X             Y             Z
Electronic contribution:     -4.62816      -0.18499       2.30862
Nuclear contribution   :      6.14092       0.33042      -3.02471
                        -----------------------------------------
Total Dipole Moment    :      1.51276       0.14543      -0.71609
                        -----------------------------------------
Magnitude (a.u.)       :      1.67999
Magnitude (Debye)      :      4.27021

CHEMICAL SHIELDING SUMMARY (ppm)
--------------------------

  Nucleus  Element    Isotropic     Anisotropy
  -------  -------  ------------   ------------
      0       C           59.907        171.356
      1       C           64.600        163.706
      2       C           64.705        171.579
      3       C           62.036        164.959
      4       C           61.549        171.827
      5       C           71.080        124.181
      6       H           24.065          6.487
      7       H           24.102          5.677
      8       H           23.760          5.256
      9       H           23.728          4.620
     10       H           24.003          5.198
     11       C           86.348        292.450
     12       N           -6.827        407.446

                             ****ORCA TERMINATED NORMALLY****
TOTAL RUN TIME: 0 days 0 hours 0 minutes 57 seconds 855 msec
