                         Program Version 4.0.0.2 - RELEASE -
|  1> !cc-pvdz BP86 NMR
|  2>
|  3> *xyzfile 0 1 guess.xyz
|  4>
|  5>
|  6>                          ****END OF INPUT****

CARTESIAN COORDINATES (ANGSTROEM)
---------------------------------
  C    -19.737300    2.306740   10.656530
  C    -18.440980    2.316970   10.021940
  C    -17.705650    3.481450    9.863770
  C    -18.272370    4.634440   10.389520
  C    -19.568480    4.618590   11.062050
  C    -20.364960    3.443420   11.214610
  H    -20.243230    1.345590   10.671550
  H    -19.881580    5.594420   11.431750
  H    -17.691190    5.556960   10.269040
  H    -16.735630    3.483370    9.348210
  H    -18.002700    1.392910    9.638850
  C    -21.751990    3.314180   11.860660
  N    -22.801950    3.130990   12.316460

 Total Charge           Charge          ....    0
 Multiplicity           Mult            ....    1
 Number of Electrons    NEL             ....   54
 Basis Dimension        Dim             ....  137

ORBITAL ENERGIES
----------------

  NO   OCC          E(Eh)            E(eV)
   0   2.0000     -14.024136      -381.6162
   1   2.0000      -9.987491      -271.7734
   2   2.0000      -9.966356      -271.1983
   3   2.0000      -9.957486      -270.9570
   4   2.0000      -9.952222      -270.8137
   5   2.0000      -9.947763      -270.6924
   6   2.0000      -9.944581      -270.6058
   7   2.0000      -9.942650      -270.5533
   8   2.0000      -0.835204       -22.7271
   9   2.0000      -0.800151       -21.7732
  10   2.0000      -0.720179       -19.5971
  11   2.0000      -0.688858       -18.7448
  12   2.0000      -0.588156       -16.0045
  13   2.0000      -0.571588       -15.5537
  14   2.0000      -0.510007       -13.8780
  15   2.0000      -0.462160       -12.5760
  16   2.0000      -0.429288       -11.6815
  17   2.0000      -0.419174       -11.4063
  18   2.0000      -0.380830       -10.3629
  19   2.0000      -0.361774        -9.8444
  20   2.0000      -0.347493        -9.4558
  21   2.0000      -0.326859        -8.8943
  22   2.0000      -0.318520        -8.6674
  23   2.0000      -0.315063        -8.5733
  24   2.0000      -0.304322        -8.2810
  25   2.0000      -0.256679        -6.9846
  26   2.0000      -0.243850        -6.6355
  27   0.0000      -0.086937        -2.3657
  28   0.0000      -0.070544        -1.9196
  29   0.0000      -0.014485        -0.3941
  30   0.0000       0.018228         0.4960
  31   0.0000       0.021923         0.5966

MULLIKEN ATOMIC CHARGES
-----------------------
   0 C :    0.044104
   1 C :    0.019918
   2 C :    0.026724
   3 C :    0.011403
   4 C :    0.014073
   5 C :    0.041653
   6 H :   -0.001905
   7 H :   -0.004469
   8 H :    0.002942
   9 H :   -0.000464
  10 H :   -0.002187
  11 C :   -0.072353
  12 N :   -0.079439
Sum of atomic charges:   -0.0000000

LOEWDIN ATOMIC CHARGES
----------------------
   0 C :    0.006355
   1 C :   -0.019176
   2 C :   -0.021067
   3 C :   -0.019073
   4 C :    0.005400
   5 C :   -0.075243
   6 H :    0.036037
   7 H :    0.034678
   8 H :    0.036754
   9 H :    0.039820
  10 H :    0.035771
  11 C :   -0.077498
  12 N :    0.017240

  Mayer bond orders larger than 0.1
B(  0-C ,  1-C ) :   1.4460 B(  0-C ,  5-C ) :   1.3949 B(  0-C ,  6-H ) :   0.9393
B(  1-C ,  2-C ) :   1.4599 B(  1-C , 10-H ) :   0.9360 B(  2-C ,  3-C ) :   1.4549
B(  2-C ,  9-H ) :   0.9393 B(  3-C ,  4-C ) :   1.4357 B(  3-C ,  8-H ) :   0.9379
B(  4-C ,  5-C ) :   1.3713 B(  4-C ,  7-H ) :   0.9481 B(  5-C , 11-C ) :   0.9387
B( 11-C , 12-N ) :   3.1803

FINAL SINGLE POINT ENERGY      -324.490791820076

DIPOLE MOMENT
-------------
                                X             Y             Z
Electronic contribution:     -4.60683      -0.18344       2.29728
Nuclear contribution   :      6.14092       0.33042      -3.02471
                        -----------------------------------------
Total Dipole Moment    :      1.53409       0.14699      -0.72743
                        -----------------------------------------
Magnitude (a.u.)       :      1.70417
Magnitude (Debye)      :      4.33166

CHEMICAL SHIELDING SUMMARY (ppm)
--------------------------

  Nucleus  Element    Isotropic     Anisotropy
  -------  -------  ------------   ------------
      0       C           57.757        175.130
      1       C           62.543        167.665
      2       C           62.675        175.927
      3       C           59.858        168.980
      4       C           59.422        175.974
      5       C           69.079        126.137
      6       H           23.948          6.554
      7       H           23.978          5.752
      8       H           23.646          5.304
      9       H           23.619          4.654
     10       H           23.894          5.240
     11       C           84.378        295.073
     12       N          -11.631        412.051

                             ****ORCA TERMINATED NORMALLY****
TOTAL RUN TIME: 0 days 0 hours 1 minutes 1 seconds 118 msec
