                         Program Version 4.0.0.2 - RELEASE -
|  1> !aug-cc-pVDZ B3LYP NMR
|  2>
|  3> *xyzfile 0 1 guess.xyz
|  4>
|  5>
|  6>                          ****END OF INPUT****

CARTESIAN COORDINATES (ANGSTROEM)
---------------------------------
  C    -19.489940    2.338740   10.545380
  C    -18.250820    2.310330    9.903550
  C    -17.510240    3.484990    9.764500
  C    -18.006500    4.688960   10.266290
  C    -19.245430    4.719270   10.908420
  C    -19.982230    3.543570   11.045310
  H    -20.064060    1.422520   10.652030
  H    -19.629000    5.658190   11.297980
  H    -17.428450    5.603180   10.157220
  H    -16.544910    3.462110    9.264330
  H    -17.862920    1.373220    9.512140
  Cl   -21.509870    3.579770   11.836840

 Total Charge           Charge          ....    0
 Multiplicity           Mult            ....    1
 Number of Electrons    NEL             ....   58
 Basis Dimension        Dim             ....  210

ORBITAL ENERGIES
----------------

  NO   OCC          E(Eh)            E(eV)
   0   2.0000    -101.556852     -2763.5024
   1   2.0000     -10.250987      -278.9435
   2   2.0000     -10.203205      -277.6433
   3   2.0000     -10.203042      -277.6389
   4   2.0000     -10.202471      -277.6233
   5   2.0000     -10.202407      -277.6216
   6   2.0000     -10.198466      -277.5144
   7   2.0000      -9.469393      -257.6753
   8   2.0000      -7.231847      -196.7886
   9   2.0000      -7.222394      -196.5313
  10   2.0000      -7.221934      -196.5188
  11   2.0000      -0.901183       -24.5224
  12   2.0000      -0.844062       -22.9681
  13   2.0000      -0.763632       -20.7795
  14   2.0000      -0.738828       -20.1045
  15   2.0000      -0.624066       -16.9817
  16   2.0000      -0.605655       -16.4807
  17   2.0000      -0.529072       -14.3968
  18   2.0000      -0.474038       -12.8992
  19   2.0000      -0.472890       -12.8680
  20   2.0000      -0.437149       -11.8954
  21   2.0000      -0.436290       -11.8721
  22   2.0000      -0.402636       -10.9563
  23   2.0000      -0.366997        -9.9865
  24   2.0000      -0.365139        -9.9359
  25   2.0000      -0.339992        -9.2517
  26   2.0000      -0.316165        -8.6033
  27   2.0000      -0.269507        -7.3336
  28   2.0000      -0.250825        -6.8253
  29   0.0000      -0.027717        -0.7542
  30   0.0000      -0.026014        -0.7079
  31   0.0000      -0.010155        -0.2763
  32   0.0000       0.006642         0.1807
  33   0.0000       0.010106         0.2750

MULLIKEN ATOMIC CHARGES
-----------------------
   0 C :    0.695220
   1 C :    1.017888
   2 C :    0.446122
   3 C :    0.968160
   4 C :    0.682241
   5 C :    0.068858
   6 H :   -0.716715
   7 H :   -0.716008
   8 H :   -0.755824
   9 H :   -0.711525
  10 H :   -0.773183
  11 Cl:   -0.205235
Sum of atomic charges:   -0.0000000

LOEWDIN ATOMIC CHARGES
----------------------
   0 C :   -0.281371
   1 C :   -0.272600
   2 C :   -0.286528
   3 C :   -0.272417
   4 C :   -0.281366
   5 C :   -1.265405
   6 H :    0.283072
   7 H :    0.283067
   8 H :    0.290004
   9 H :    0.289169
  10 H :    0.289727
  11 Cl:    1.224647

  Mayer bond orders larger than 0.1
B(  0-C ,  1-C ) :   1.2934 B(  0-C ,  3-C ) :   0.1297 B(  0-C ,  5-C ) :   0.5655
B(  0-C ,  6-H ) :  -0.2319 B(  0-C , 10-H ) :   0.3745 B(  0-C , 11-Cl) :  -0.1639
B(  1-C ,  2-C ) :   1.3205 B(  1-C ,  3-C ) :  -0.1468 B(  1-C ,  5-C ) :  -0.2227
B(  1-C ,  8-H ) :  -0.1005 B(  1-C ,  9-H ) :   0.1748 B(  1-C , 10-H ) :  -0.3407
B(  2-C ,  3-C ) :   1.3772 B(  2-C ,  5-C ) :   0.2825 B(  2-C ,  8-H ) :   0.3797
B(  2-C ,  9-H ) :  -0.1043 B(  2-C , 10-H ) :   0.3764 B(  3-C ,  4-C ) :   1.2878
B(  3-C ,  5-C ) :  -0.2316 B(  3-C ,  8-H ) :  -0.3207 B(  3-C ,  9-H ) :   0.2225
B(  4-C ,  5-C ) :   0.5475 B(  4-C ,  7-H ) :  -0.2158 B(  4-C ,  8-H ) :   0.3598
B(  4-C , 11-Cl) :  -0.1648 B(  5-C ,  6-H ) :   0.4127 B(  5-C ,  7-H ) :   0.3942
B(  5-C ,  8-H ) :  -0.1597 B(  5-C , 10-H ) :  -0.1617 B(  5-C , 11-Cl) :   1.1092

FINAL SINGLE POINT ENERGY      -691.683356306127

DIPOLE MOMENT
-------------
                                X             Y             Z
Electronic contribution:     -8.03833       0.18973       4.16685
Nuclear contribution   :      8.62674      -0.20443      -4.46979
                        -----------------------------------------
Total Dipole Moment    :      0.58841      -0.01470      -0.30295
                        -----------------------------------------
Magnitude (a.u.)       :      0.66198
Magnitude (Debye)      :      1.68262

CHEMICAL SHIELDING SUMMARY (ppm)
--------------------------

  Nucleus  Element    Isotropic     Anisotropy
  -------  -------  ------------   ------------
      0       C           64.423        147.671
      1       C           63.207        168.362
      2       C           67.402        174.169
      3       C           63.533        169.211
      4       C           65.101        149.322
      5       C           52.301        123.159
      6       H           24.052          7.594
      7       H           24.146          7.540
      8       H           24.094          4.989
      9       H           24.164          4.710
     10       H           24.108          4.949
     11       Cl         692.486        361.562

                             ****ORCA TERMINATED NORMALLY****
TOTAL RUN TIME: 0 days 0 hours 9 minutes 5 seconds 178 msec
