                         Program Version 4.0.0.2 - RELEASE -
|  1> !cc-pvdz BP86 NMR
|  2>
|  3> *xyzfile 0 1 guess.xyz
|  4>
|  5>
|  6>                          ****END OF INPUT****

CARTESIAN COORDINATES (ANGSTROEM)
---------------------------------
  C    -19.529460    2.358330   10.578980
  C    -18.295990    2.311200    9.927040
  C    -17.540400    3.475150    9.773430
  C    -18.011570    4.692240   10.269410
  C    -19.243530    4.751880   10.923160
  C    -19.999560    3.581640   11.075830
  H    -20.106070    1.442490   10.690550
  H    -19.596550    5.707970   11.303890
  H    -17.417250    5.594980   10.145920
  H    -16.579500    3.433530    9.264640
  H    -17.922350    1.366540    9.537920
  N    -21.295720    3.637710   11.762600
  O    -21.676040    4.737710   12.189090
  O    -21.934990    2.581820   11.876410

 Total Charge           Charge          ....    0
 Multiplicity           Mult            ....    1
 Number of Electrons    NEL             ....   64
 Basis Dimension        Dim             ....  151

ORBITAL ENERGIES
----------------

  NO   OCC          E(Eh)            E(eV)
   0   2.0000     -18.812085      -511.9029
   1   2.0000     -18.811814      -511.8955
   2   2.0000     -14.232277      -387.2799
   3   2.0000      -9.981112      -271.5999
   4   2.0000      -9.948816      -270.7210
   5   2.0000      -9.948558      -270.7140
   6   2.0000      -9.946355      -270.6541
   7   2.0000      -9.944725      -270.6097
   8   2.0000      -9.944609      -270.6066
   9   2.0000      -1.126338       -30.6492
  10   2.0000      -0.962362       -26.1872
  11   2.0000      -0.818246       -22.2656
  12   2.0000      -0.740759       -20.1571
  13   2.0000      -0.708069       -19.2675
  14   2.0000      -0.642424       -17.4812
  15   2.0000      -0.575798       -15.6683
  16   2.0000      -0.544106       -14.8059
  17   2.0000      -0.504778       -13.7357
  18   2.0000      -0.479079       -13.0364
  19   2.0000      -0.460390       -12.5278
  20   2.0000      -0.457188       -12.4407
  21   2.0000      -0.423934       -11.5358
  22   2.0000      -0.421187       -11.4611
  23   2.0000      -0.402423       -10.9505
  24   2.0000      -0.357474        -9.7274
  25   2.0000      -0.346494        -9.4286
  26   2.0000      -0.331013        -9.0073
  27   2.0000      -0.272980        -7.4282
  28   2.0000      -0.261676        -7.1206
  29   2.0000      -0.258314        -7.0291
  30   2.0000      -0.257108        -6.9963
  31   2.0000      -0.237911        -6.4739
  32   0.0000      -0.122826        -3.3423
  33   0.0000      -0.066150        -1.8000
  34   0.0000      -0.041086        -1.1180
  35   0.0000       0.024163         0.6575
  36   0.0000       0.067834         1.8459

MULLIKEN ATOMIC CHARGES
-----------------------
   0 C :    0.029961
   1 C :    0.035008
   2 C :    0.038866
   3 C :    0.030370
   4 C :    0.037639
   5 C :    0.125830
   6 H :    0.012283
   7 H :    0.009714
   8 H :   -0.001574
   9 H :   -0.003762
  10 H :   -0.004454
  11 N :    0.126254
  12 O :   -0.218580
  13 O :   -0.217555
Sum of atomic charges:   -0.0000000

LOEWDIN ATOMIC CHARGES
----------------------
   0 C :   -0.004010
   1 C :   -0.017895
   2 C :   -0.004562
   3 C :   -0.018695
   4 C :   -0.002916
   5 C :   -0.069479
   6 H :    0.039604
   7 H :    0.039391
   8 H :    0.037331
   9 H :    0.036395
  10 H :    0.037011
  11 N :    0.192720
  12 O :   -0.132667
  13 O :   -0.132230

  Mayer bond orders larger than 0.1
B(  0-C ,  1-C ) :   1.4643 B(  0-C ,  5-C ) :   1.3924 B(  0-C ,  6-H ) :   0.9169
B(  1-C ,  2-C ) :   1.4486 B(  1-C , 10-H ) :   0.9345 B(  2-C ,  3-C ) :   1.4453
B(  2-C ,  9-H ) :   0.9380 B(  3-C ,  4-C ) :   1.4629 B(  3-C ,  8-H ) :   0.9357
B(  4-C ,  5-C ) :   1.3938 B(  4-C ,  7-H ) :   0.9168 B(  5-C , 11-N ) :   0.8110
B( 11-N , 12-O ) :   1.6144 B( 11-N , 13-O ) :   1.6156 B( 12-O , 13-O ) :   0.3112

FINAL SINGLE POINT ENERGY      -436.808331583241

DIPOLE MOMENT
-------------
                                X             Y             Z
Electronic contribution:     -5.49868       0.23793       2.91430
Nuclear contribution   :      6.98754      -0.30246      -3.70143
                        -----------------------------------------
Total Dipole Moment    :      1.48886      -0.06453      -0.78713
                        -----------------------------------------
Magnitude (a.u.)       :      1.68536
Magnitude (Debye)      :      4.28385

CHEMICAL SHIELDING SUMMARY (ppm)
--------------------------

  Nucleus  Element    Isotropic     Anisotropy
  -------  -------  ------------   ------------
      0       C           71.031        170.136
      1       C           66.049        167.155
      2       C           62.431        180.104
      3       C           66.192        167.187
      4       C           70.858        170.291
      5       C           47.830        102.044
      6       H           23.301          4.954
      7       H           23.332          4.913
      8       H           23.945          5.047
      9       H           23.874          5.311
     10       H           23.952          5.040
     11       N          -97.900       -188.194
     12       O         -280.854       -509.059
     13       O         -281.611       -510.708

                             ****ORCA TERMINATED NORMALLY****
TOTAL RUN TIME: 0 days 0 hours 1 minutes 9 seconds 616 msec
