                         Program Version 4.0.0.2 - RELEASE -
|  1> !aug-cc-pVDZ B3LYP NMR
|  2>
|  3> *xyzfile 0 1 guess.xyz
|  4>
|  5>
|  6>                          ****END OF INPUT****

CARTESIAN COORDINATES (ANGSTROEM)
---------------------------------
  C     -1.741110    2.666030   -0.229680
  C     -1.562000    3.671080    0.945370
  C     -0.442830    2.865620   -1.045230
  H     -2.623510    2.932880   -0.821960
  H     -1.863000    1.638810    0.130890
  C      0.691760    2.346590   -0.186250
  C      0.849310    3.211680    0.826000
  C     -0.182620    4.302800    0.643660
  H     -1.596860    3.169190    1.918270
  H     -2.355290    4.426630    0.916080
  H      1.230110    1.422990   -0.339010
  H      1.538820    3.125160    1.652610
  C     -0.242070    4.385150   -0.892960
  H     -0.457850    2.488090   -2.068110
  H      0.035960    5.237860    1.160460
  C      0.984050    4.976720   -1.584030
  H     -1.123690    4.949370   -1.227540
  H      1.887380    4.368890   -1.476830
  H      1.200650    5.973610   -1.186390
  H      0.790810    5.077220   -2.657510

 Total Charge           Charge          ....    0
 Multiplicity           Mult            ....    1
 Number of Electrons    NEL             ....   60
 Basis Dimension        Dim             ....  292

ORBITAL ENERGIES
----------------

  NO   OCC          E(Eh)            E(eV)
   0   2.0000     -10.179500      -276.9983
   1   2.0000     -10.178995      -276.9845
   2   2.0000     -10.178306      -276.9658
   3   2.0000     -10.173513      -276.8354
   4   2.0000     -10.173319      -276.8301
   5   2.0000     -10.171827      -276.7895
   6   2.0000     -10.171012      -276.7673
   7   2.0000     -10.163470      -276.5621
   8   2.0000      -0.886281       -24.1169
   9   2.0000      -0.743379       -20.2284
  10   2.0000      -0.736653       -20.0453
  11   2.0000      -0.715662       -19.4741
  12   2.0000      -0.641965       -17.4687
  13   2.0000      -0.579645       -15.7730
  14   2.0000      -0.543283       -14.7835
  15   2.0000      -0.512746       -13.9525
  16   2.0000      -0.512248       -13.9390
  17   2.0000      -0.456531       -12.4228
  18   2.0000      -0.447051       -12.1649
  19   2.0000      -0.407446       -11.0872
  20   2.0000      -0.404052       -10.9948
  21   2.0000      -0.375965       -10.2305
  22   2.0000      -0.369319       -10.0497
  23   2.0000      -0.346975        -9.4417
  24   2.0000      -0.332955        -9.0602
  25   2.0000      -0.332624        -9.0512
  26   2.0000      -0.325037        -8.8447
  27   2.0000      -0.313219        -8.5231
  28   2.0000      -0.294305        -8.0084
  29   2.0000      -0.238087        -6.4787
  30   0.0000      -0.007421        -0.2019
  31   0.0000      -0.000911        -0.0248
  32   0.0000       0.008370         0.2278
  33   0.0000       0.009579         0.2607
  34   0.0000       0.011926         0.3245

MULLIKEN ATOMIC CHARGES
-----------------------
   0 C :    1.100503
   1 C :    1.069418
   2 C :    1.158042
   3 H :   -0.546481
   4 H :   -0.561707
   5 C :    0.607123
   6 C :    0.542099
   7 C :    1.186513
   8 H :   -0.609927
   9 H :   -0.495922
  10 H :   -0.740611
  11 H :   -0.715049
  12 C :    0.496074
  13 H :   -0.840784
  14 H :   -0.880185
  15 C :    0.851335
  16 H :   -0.861658
  17 H :   -0.243206
  18 H :   -0.283949
  19 H :   -0.231628
Sum of atomic charges:    0.0000000

LOEWDIN ATOMIC CHARGES
----------------------
   0 C :   -0.404070
   1 C :   -0.402581
   2 C :   -0.755944
   3 H :    0.341383
   4 H :    0.339549
   5 C :   -0.144372
   6 C :   -0.140841
   7 C :   -0.761648
   8 H :    0.338645
   9 H :    0.343069
  10 H :    0.284886
  11 H :    0.285589
  12 C :   -1.035558
  13 H :    0.348016
  14 H :    0.349547
  15 C :   -0.234838
  16 H :    0.374658
  17 H :    0.287698
  18 H :    0.293442
  19 H :    0.293368

  Mayer bond orders larger than 0.1
B(  0-C ,  1-C ) :   1.4060 B(  0-C ,  2-C ) :   1.1377 B(  0-C ,  3-H ) :   0.2214
B(  0-C ,  4-H ) :   0.3447 B(  0-C ,  8-H ) :   0.2239 B(  0-C ,  9-H ) :   0.1897
B(  0-C , 10-H ) :   0.1333 B(  0-C , 13-H ) :   0.2406 B(  1-C ,  3-H ) :   0.2035
B(  1-C ,  4-H ) :   0.2231 B(  1-C ,  7-C ) :   1.0991 B(  1-C ,  8-H ) :   0.2832
B(  1-C ,  9-H ) :   0.2927 B(  1-C , 11-H ) :   0.1312 B(  1-C , 14-H ) :   0.2310
B(  2-C ,  3-H ) :   0.2104 B(  2-C ,  5-C ) :   1.1221 B(  2-C ,  7-C ) :   0.1330
B(  2-C , 12-C ) :   0.9753 B(  2-C , 13-H ) :  -0.8760 B(  2-C , 14-H ) :   0.1165
B(  2-C , 15-C ) :  -0.3007 B(  2-C , 16-H ) :   0.2699 B(  2-C , 17-H ) :  -0.1239
B(  3-H ,  4-H ) :  -0.3263 B(  5-C ,  6-C ) :   1.8751 B(  5-C ,  7-C ) :  -0.1310
B(  5-C , 10-H ) :  -0.1725 B(  5-C , 11-H ) :   0.3022 B(  5-C , 13-H ) :   0.3755
B(  5-C , 15-C ) :   0.1132 B(  6-C ,  7-C ) :   1.0593 B(  6-C , 10-H ) :   0.3283
B(  6-C , 14-H ) :   0.4350 B(  7-C ,  9-H ) :   0.1961 B(  7-C , 12-C ) :   0.9820
B(  7-C , 13-H ) :   0.1100 B(  7-C , 14-H ) :  -0.9769 B(  7-C , 15-C ) :  -0.2164
B(  7-C , 16-H ) :   0.3224 B(  7-C , 18-H ) :  -0.1456 B(  8-H ,  9-H ) :  -0.3067
B( 10-H , 12-C ) :   0.1237 B( 12-C , 15-C ) :   1.4864 B( 12-C , 16-H ) :  -0.7542
B( 12-C , 17-H ) :   0.3524 B( 12-C , 18-H ) :   0.2413 B( 12-C , 19-H ) :   0.3291
B( 15-C , 16-H ) :   0.1045 B( 15-C , 17-H ) :   0.7805 B( 15-C , 18-H ) :   0.6642
B( 15-C , 19-H ) :   0.6382 B( 17-H , 19-H ) :  -0.1181 B( 18-H , 19-H ) :  -0.1147

FINAL SINGLE POINT ENERGY      -311.849891539960

DIPOLE MOMENT
-------------
                                X             Y             Z
Electronic contribution:      0.62394      -1.76460       1.39992
Nuclear contribution   :     -0.72346       1.81005      -1.42854
                        -----------------------------------------
Total Dipole Moment    :     -0.09952       0.04544      -0.02862
                        -----------------------------------------
Magnitude (a.u.)       :      0.11308
Magnitude (Debye)      :      0.28744

CHEMICAL SHIELDING SUMMARY (ppm)
--------------------------

  Nucleus  Element    Isotropic     Anisotropy
  -------  -------  ------------   ------------
      0       C          164.340         25.378
      1       C          164.344         25.721
      2       C          142.367         28.160
      3       H           29.875          9.772
      4       H           30.570         11.655
      5       C           55.830        150.459
      6       C           57.048        150.383
      7       C          141.346         29.126
      8       H           30.613         11.636
      9       H           29.888          9.763
     10       H           25.328          2.571
     11       H           25.335          2.562
     12       C          130.777         18.405
     13       H           29.323          7.882
     14       H           29.369          7.934
     15       C          178.281         28.712
     16       H           29.889          7.629
     17       H           30.447          6.061
     18       H           31.014         10.368
     19       H           30.956         10.543

                             ****ORCA TERMINATED NORMALLY****
TOTAL RUN TIME: 0 days 0 hours 26 minutes 35 seconds 427 msec
