                         Program Version 4.0.0.2 - RELEASE -
|  1> !cc-pvdz BP86 NMR
|  2>
|  3> *xyzfile 0 1 guess.xyz
|  4>
|  5>
|  6>                          ****END OF INPUT****

CARTESIAN COORDINATES (ANGSTROEM)
---------------------------------
  C     -5.642670    2.695000   -0.275860
  N     -5.945500    1.592440   -0.436880
  C     -5.279630    4.135020   -0.048700
  C     -3.892140    4.583340   -0.804690
  H     -5.263580    4.286560    1.051470
  H     -6.166320    4.731720   -0.349450
  H     -2.990370    4.021870   -0.492910
  H     -3.593680    5.642630   -0.670970
  H     -3.901970    4.456970   -1.904450

 Total Charge           Charge          ....    0
 Multiplicity           Mult            ....    1
 Number of Electrons    NEL             ....   30
 Basis Dimension        Dim             ....   81

ORBITAL ENERGIES
----------------

  NO   OCC          E(Eh)            E(eV)
   0   2.0000     -14.008006      -381.1772
   1   2.0000      -9.982397      -271.6348
   2   2.0000      -9.950505      -270.7670
   3   2.0000      -9.944797      -270.6117
   4   2.0000      -0.824495       -22.4357
   5   2.0000      -0.717135       -19.5142
   6   2.0000      -0.617542       -16.8042
   7   2.0000      -0.459035       -12.4910
   8   2.0000      -0.418926       -11.3996
   9   2.0000      -0.387986       -10.5576
  10   2.0000      -0.352887        -9.6026
  11   2.0000      -0.344859        -9.3841
  12   2.0000      -0.304012        -8.2726
  13   2.0000      -0.291364        -7.9284
  14   2.0000      -0.287367        -7.8197
  15   0.0000      -0.009087        -0.2473
  16   0.0000       0.004225         0.1150
  17   0.0000       0.033027         0.8987
  18   0.0000       0.063629         1.7314
  19   0.0000       0.079435         2.1615

MULLIKEN ATOMIC CHARGES
-----------------------
   0 C :   -0.090966
   1 N :   -0.102989
   2 C :   -0.067613
   3 C :   -0.093232
   4 H :    0.088527
   5 H :    0.087729
   6 H :    0.061767
   7 H :    0.050105
   8 H :    0.066674
Sum of atomic charges:   -0.0000000

LOEWDIN ATOMIC CHARGES
----------------------
   0 C :   -0.097751
   1 N :   -0.004027
   2 C :   -0.078687
   3 C :   -0.072230
   4 H :    0.063929
   5 H :    0.064061
   6 H :    0.042207
   7 H :    0.039559
   8 H :    0.042940

  Mayer bond orders larger than 0.1
B(  0-C ,  1-N ) :   3.2008 B(  0-C ,  2-C ) :   1.0527 B(  2-C ,  3-C ) :   1.0469
B(  2-C ,  4-H ) :   0.9264 B(  2-C ,  5-H ) :   0.9263 B(  3-C ,  6-H ) :   0.9717
B(  3-C ,  7-H ) :   0.9687 B(  3-C ,  8-H ) :   0.9718

FINAL SINGLE POINT ENERGY      -172.060824890186

DIPOLE MOMENT
-------------
                                X             Y             Z
Electronic contribution:     -3.10604      -4.72329       0.49991
Nuclear contribution   :      3.56232       6.13868      -0.34079
                        -----------------------------------------
Total Dipole Moment    :      0.45628       1.41539       0.15912
                        -----------------------------------------
Magnitude (a.u.)       :      1.49560
Magnitude (Debye)      :      3.80152

CHEMICAL SHIELDING SUMMARY (ppm)
--------------------------

  Nucleus  Element    Isotropic     Anisotropy
  -------  -------  ------------   ------------
      0       C           85.166        305.575
      1       N            3.455        453.339
      2       C          172.869         25.578
      3       C          175.515         33.008
      4       H           28.869          7.806
      5       H           28.883          7.751
      6       H           29.857          8.283
      7       H           30.052          9.684
      8       H           29.857          8.254

                             ****ORCA TERMINATED NORMALLY****
TOTAL RUN TIME: 0 days 0 hours 0 minutes 12 seconds 952 msec
