                         Program Version 4.0.0.2 - RELEASE -
|  1> !aug-cc-pVDZ B3LYP NMR
|  2>
|  3> *xyzfile 0 1 guess.xyz
|  4>
|  5>
|  6>                          ****END OF INPUT****

CARTESIAN COORDINATES (ANGSTROEM)
---------------------------------
  C     -3.572260    1.783970    0.495810
  C     -4.281090    2.546520    1.596970
  C     -3.473320    3.285010    0.582130
  C     -5.549460    3.055260    0.969110
  H     -4.000230    2.587650    2.630510
  C     -5.508670    2.560660   -0.462730
  C     -4.754790    3.799010   -0.052210
  H     -2.624150    3.858510    0.896040
  C     -4.560850    1.379820   -0.584430
  H     -2.734720    1.141900    0.693490
  H     -5.057330    0.435220   -0.346840
  H     -4.090010    1.337140   -1.570180
  H     -6.368140    2.599260   -1.105090
  H     -6.372470    3.539150    1.456230
  H     -5.007450    4.814440   -0.283710

 Total Charge           Charge          ....    0
 Multiplicity           Mult            ....    1
 Number of Electrons    NEL             ....   50
 Basis Dimension        Dim             ....  233

ORBITAL ENERGIES
----------------

  NO   OCC          E(Eh)            E(eV)
   0   2.0000     -10.187059      -277.2040
   1   2.0000     -10.187040      -277.2035
   2   2.0000     -10.177190      -276.9354
   3   2.0000     -10.176501      -276.9167
   4   2.0000     -10.176264      -276.9102
   5   2.0000     -10.175840      -276.8987
   6   2.0000     -10.175618      -276.8927
   7   2.0000      -0.954607       -25.9762
   8   2.0000      -0.786752       -21.4086
   9   2.0000      -0.738690       -20.1008
  10   2.0000      -0.632196       -17.2029
  11   2.0000      -0.570202       -15.5160
  12   2.0000      -0.561023       -15.2662
  13   2.0000      -0.541504       -14.7351
  14   2.0000      -0.506254       -13.7759
  15   2.0000      -0.441474       -12.0131
  16   2.0000      -0.436283       -11.8719
  17   2.0000      -0.421893       -11.4803
  18   2.0000      -0.404579       -11.0092
  19   2.0000      -0.351417        -9.5625
  20   2.0000      -0.344333        -9.3698
  21   2.0000      -0.318983        -8.6800
  22   2.0000      -0.280200        -7.6246
  23   2.0000      -0.275286        -7.4909
  24   2.0000      -0.209540        -5.7019
  25   0.0000      -0.005222        -0.1421
  26   0.0000       0.010126         0.2756
  27   0.0000       0.011376         0.3096
  28   0.0000       0.013209         0.3594
  29   0.0000       0.029298         0.7972

MULLIKEN ATOMIC CHARGES
-----------------------
   0 C :    0.595282
   1 C :    0.904673
   2 C :    0.913466
   3 C :    0.881413
   4 H :   -0.792534
   5 C :    0.607076
   6 C :    0.900732
   7 H :   -0.803749
   8 C :    0.889769
   9 H :   -0.794410
  10 H :   -0.452950
  11 H :   -0.449617
  12 H :   -0.785621
  13 H :   -0.803361
  14 H :   -0.810168
Sum of atomic charges:   -0.0000000

LOEWDIN ATOMIC CHARGES
----------------------
   0 C :   -0.473050
   1 C :   -0.319507
   2 C :   -0.312621
   3 C :   -0.319597
   4 H :    0.309567
   5 C :   -0.473095
   6 C :   -0.312620
   7 H :    0.308299
   8 C :   -0.307536
   9 H :    0.301012
  10 H :    0.339976
  11 H :    0.340060
  12 H :    0.301217
  13 H :    0.309469
  14 H :    0.308426

  Mayer bond orders larger than 0.1
B(  0-C ,  1-C ) :   1.1643 B(  0-C ,  2-C ) :   1.1470 B(  0-C ,  3-C ) :  -0.1447
B(  0-C ,  4-H ) :   0.1112 B(  0-C ,  5-C ) :   0.1949 B(  0-C ,  6-C ) :  -0.1449
B(  0-C ,  7-H ) :   0.1118 B(  0-C ,  8-C ) :   1.1329 B(  0-C ,  9-H ) :  -0.1319
B(  0-C , 10-H ) :   0.1294 B(  0-C , 11-H ) :   0.1166 B(  1-C ,  2-C ) :   0.8938
B(  1-C ,  3-C ) :   1.2145 B(  1-C ,  4-H ) :  -0.3132 B(  1-C ,  5-C ) :  -0.1524
B(  1-C ,  9-H ) :   0.1317 B(  1-C , 13-H ) :   0.2341 B(  2-C ,  5-C ) :  -0.1464
B(  2-C ,  6-C ) :   1.1892 B(  2-C ,  7-H ) :  -0.2996 B(  2-C ,  9-H ) :   0.1198
B(  2-C , 14-H ) :   0.2199 B(  3-C ,  4-H ) :   0.2430 B(  3-C ,  5-C ) :   1.1542
B(  3-C ,  6-C ) :   0.8845 B(  3-C , 12-H ) :   0.1189 B(  3-C , 13-H ) :  -0.2914
B(  5-C ,  6-C ) :   1.1733 B(  5-C ,  8-C ) :   1.1322 B(  5-C , 12-H ) :  -0.1300
B(  5-C , 14-H ) :   0.1259 B(  6-C ,  7-H ) :   0.2085 B(  6-C , 12-H ) :   0.1243
B(  6-C , 14-H ) :  -0.2967 B(  8-C , 10-H ) :   0.4201 B(  8-C , 11-H ) :   0.4390
B( 10-H , 11-H ) :  -0.1757

FINAL SINGLE POINT ENERGY      -271.274873700380

DIPOLE MOMENT
-------------
                                X             Y             Z
Electronic contribution:      0.02374       0.73370       0.53564
Nuclear contribution   :     -0.02177      -0.62238      -0.46033
                        -----------------------------------------
Total Dipole Moment    :      0.00198       0.11132       0.07531
                        -----------------------------------------
Magnitude (a.u.)       :      0.13442
Magnitude (Debye)      :      0.34167

CHEMICAL SHIELDING SUMMARY (ppm)
--------------------------

  Nucleus  Element    Isotropic     Anisotropy
  -------  -------  ------------   ------------
      0       C          167.821         67.634
      1       C          185.971         58.231
      2       C          184.719         55.767
      3       C          185.703         57.826
      4       H           31.042         14.498
      5       C          167.891         67.775
      6       C          184.538         55.537
      7       H           30.966         14.359
      8       C          158.140         16.037
      9       H           30.494         15.192
     10       H           29.690         11.486
     11       H           29.685         11.278
     12       H           30.459         15.277
     13       H           31.025         14.562
     14       H           30.954         14.462

                             ****ORCA TERMINATED NORMALLY****
TOTAL RUN TIME: 0 days 0 hours 11 minutes 20 seconds 816 msec
