                         Program Version 4.0.0.2 - RELEASE -
|  1> !aug-cc-pVDZ B3LYP NMR
|  2>
|  3> *xyzfile 0 1 guess.xyz
|  4>
|  5>
|  6>                          ****END OF INPUT****

CARTESIAN COORDINATES (ANGSTROEM)
---------------------------------
  C    -19.737300    2.306740   10.656530
  C    -18.440980    2.316970   10.021940
  C    -17.705650    3.481450    9.863770
  C    -18.272370    4.634440   10.389520
  C    -19.568480    4.618590   11.062050
  C    -20.364960    3.443420   11.214610
  H    -20.243230    1.345590   10.671550
  H    -19.881580    5.594420   11.431750
  H    -17.691190    5.556960   10.269040
  H    -16.735630    3.483370    9.348210
  H    -18.002700    1.392910    9.638850
  C    -21.751990    3.314180   11.860660
  N    -22.801950    3.130990   12.316460

 Total Charge           Charge          ....    0
 Multiplicity           Mult            ....    1
 Number of Electrons    NEL             ....   54
 Basis Dimension        Dim             ....  229

ORBITAL ENERGIES
----------------

  NO   OCC          E(Eh)            E(eV)
   0   2.0000     -14.347691      -390.4205
   1   2.0000     -10.264637      -279.3150
   2   2.0000     -10.246251      -278.8147
   3   2.0000     -10.234009      -278.4815
   4   2.0000     -10.228092      -278.3205
   5   2.0000     -10.222513      -278.1687
   6   2.0000     -10.219142      -278.0770
   7   2.0000     -10.217539      -278.0334
   8   2.0000      -0.920819       -25.0568
   9   2.0000      -0.878344       -23.9009
  10   2.0000      -0.793116       -21.5818
  11   2.0000      -0.760009       -20.6809
  12   2.0000      -0.650058       -17.6890
  13   2.0000      -0.633083       -17.2271
  14   2.0000      -0.564876       -15.3710
  15   2.0000      -0.515134       -14.0175
  16   2.0000      -0.479894       -13.0586
  17   2.0000      -0.469663       -12.7802
  18   2.0000      -0.429297       -11.6818
  19   2.0000      -0.403895       -10.9905
  20   2.0000      -0.395542       -10.7632
  21   2.0000      -0.372093       -10.1252
  22   2.0000      -0.370987       -10.0951
  23   2.0000      -0.358616        -9.7584
  24   2.0000      -0.346639        -9.4325
  25   2.0000      -0.285929        -7.7805
  26   2.0000      -0.271377        -7.3846
  27   0.0000      -0.064242        -1.7481
  28   0.0000      -0.047444        -1.2910
  29   0.0000      -0.017837        -0.4854
  30   0.0000       0.002066         0.0562
  31   0.0000       0.003478         0.0946

MULLIKEN ATOMIC CHARGES
-----------------------
   0 C :    0.791374
   1 C :    0.832165
   2 C :    0.095441
   3 C :    0.819831
   4 C :    0.504899
   5 C :    1.678057
   6 H :   -0.937319
   7 H :   -0.830174
   8 H :   -0.801201
   9 H :   -0.693134
  10 H :   -0.797361
  11 C :   -0.554479
  12 N :   -0.108098
Sum of atomic charges:   -0.0000000

LOEWDIN ATOMIC CHARGES
----------------------
   0 C :   -0.165631
   1 C :   -0.240728
   2 C :   -0.327715
   3 C :   -0.240015
   4 C :   -0.122468
   5 C :   -0.681002
   6 H :    0.301289
   7 H :    0.295721
   8 H :    0.299667
   9 H :    0.307614
  10 H :    0.296197
  11 C :    0.073248
  12 N :    0.203823

  Mayer bond orders larger than 0.1
B(  0-C ,  1-C ) :   1.3210 B(  0-C ,  2-C ) :  -0.1395 B(  0-C ,  3-C ) :   0.1423
B(  0-C ,  4-C ) :  -0.3729 B(  0-C ,  5-C ) :   0.6867 B(  0-C ,  6-H ) :  -0.2348
B(  0-C , 10-H ) :   0.2654 B(  1-C ,  2-C ) :   1.4302 B(  1-C ,  3-C ) :  -0.1531
B(  1-C ,  4-C ) :   0.1566 B(  1-C ,  5-C ) :  -0.5024 B(  1-C ,  6-H ) :   0.4036
B(  1-C ,  8-H ) :  -0.1718 B(  1-C ,  9-H ) :   0.1742 B(  1-C , 10-H ) :  -0.3298
B(  2-C ,  3-C ) :   1.4758 B(  2-C ,  8-H ) :   0.4313 B(  2-C , 10-H ) :   0.3706
B(  3-C ,  4-C ) :   1.2424 B(  3-C ,  5-C ) :  -0.5169 B(  3-C ,  7-H ) :   0.2462
B(  3-C ,  8-H ) :  -0.3428 B(  3-C ,  9-H ) :   0.1786 B(  3-C , 10-H ) :  -0.1663
B(  4-C ,  5-C ) :   0.6019 B(  4-C ,  7-H ) :   0.1921 B(  4-C ,  8-H ) :   0.2366
B(  4-C , 11-C ) :  -0.1541 B(  5-C ,  6-H ) :  -0.1187 B(  5-C ,  7-H ) :  -0.2537
B(  5-C , 11-C ) :   0.2675 B(  5-C , 12-N ) :   0.1353 B( 11-C , 12-N ) :   2.3292

FINAL SINGLE POINT ENERGY      -324.307616173586

DIPOLE MOMENT
-------------
                                X             Y             Z
Electronic contribution:     -4.45229      -0.16360       2.22633
Nuclear contribution   :      6.14092       0.33042      -3.02471
                        -----------------------------------------
Total Dipole Moment    :      1.68863       0.16682      -0.79838
                        -----------------------------------------
Magnitude (a.u.)       :      1.87529
Magnitude (Debye)      :      4.76661

CHEMICAL SHIELDING SUMMARY (ppm)
--------------------------

  Nucleus  Element    Isotropic     Anisotropy
  -------  -------  ------------   ------------
      0       C           53.568        181.532
      1       C           58.753        172.047
      2       C           58.133        180.886
      3       C           56.027        173.754
      4       C           55.209        182.577
      5       C           65.640        134.215
      6       H           23.814          6.976
      7       H           23.879          6.160
      8       H           23.562          5.557
      9       H           23.348          5.010
     10       H           23.820          5.525
     11       C           78.279        311.667
     12       N          -15.130        421.202

                             ****ORCA TERMINATED NORMALLY****
TOTAL RUN TIME: 0 days 0 hours 10 minutes 7 seconds 771 msec
