                         Program Version 4.0.0.2 - RELEASE -
|  1> !cc-pvdz BP86 NMR
|  2>
|  3> *xyzfile 0 1 guess.xyz
|  4>
|  5>
|  6>                          ****END OF INPUT****

CARTESIAN COORDINATES (ANGSTROEM)
---------------------------------
  C     -3.811030   -1.056290    2.125820
  C     -3.977940    0.289510    2.808070
  H     -4.190390   -1.855890    2.770210
  H     -2.764060   -1.275650    1.892610
  H     -4.375620   -1.086340    1.188230
  C     -3.017000    1.317570    2.269120
  H     -3.772650    0.182250    3.877670
  H     -5.000880    0.657050    2.677920
  O     -3.131300    2.516860    2.496330
  H     -2.132490    0.934810    1.731070

 Total Charge           Charge          ....    0
 Multiplicity           Mult            ....    1
 Number of Electrons    NEL             ....   32
 Basis Dimension        Dim             ....   86

ORBITAL ENERGIES
----------------

  NO   OCC          E(Eh)            E(eV)
   0   2.0000     -18.781826      -511.0795
   1   2.0000      -9.996295      -272.0130
   2   2.0000      -9.925339      -270.0822
   3   2.0000      -9.916674      -269.8464
   4   2.0000      -0.950865       -25.8744
   5   2.0000      -0.723948       -19.6996
   6   2.0000      -0.595753       -16.2113
   7   2.0000      -0.525044       -14.2872
   8   2.0000      -0.428115       -11.6496
   9   2.0000      -0.408043       -11.1034
  10   2.0000      -0.395441       -10.7605
  11   2.0000      -0.349631        -9.5139
  12   2.0000      -0.337862        -9.1937
  13   2.0000      -0.332554        -9.0493
  14   2.0000      -0.306097        -8.3293
  15   2.0000      -0.205277        -5.5859
  16   0.0000      -0.070818        -1.9270
  17   0.0000       0.043876         1.1939
  18   0.0000       0.064128         1.7450
  19   0.0000       0.083039         2.2596
  20   0.0000       0.096411         2.6235

MULLIKEN ATOMIC CHARGES
-----------------------
   0 C :   -0.080346
   1 C :   -0.079650
   2 H :    0.035851
   3 H :    0.036511
   4 H :    0.045470
   5 C :    0.115254
   6 H :    0.069686
   7 H :    0.055916
   8 O :   -0.185800
   9 H :   -0.012891
Sum of atomic charges:   -0.0000000

LOEWDIN ATOMIC CHARGES
----------------------
   0 C :   -0.077718
   1 C :   -0.084631
   2 H :    0.034957
   3 H :    0.028280
   4 H :    0.033944
   5 C :   -0.027634
   6 H :    0.054976
   7 H :    0.047130
   8 O :    0.000314
   9 H :   -0.009617

  Mayer bond orders larger than 0.1
B(  0-C ,  1-C ) :   1.0857 B(  0-C ,  2-H ) :   0.9631 B(  0-C ,  3-H ) :   0.9649
B(  0-C ,  4-H ) :   0.9703 B(  1-C ,  5-C ) :   1.0100 B(  1-C ,  6-H ) :   0.9221
B(  1-C ,  7-H ) :   0.9331 B(  5-C ,  8-O ) :   2.2074 B(  5-C ,  9-H ) :   0.9159

FINAL SINGLE POINT ENERGY      -193.145281971073

DIPOLE MOMENT
-------------
                                X             Y             Z
Electronic contribution:      1.14305       5.60055       0.35285
Nuclear contribution   :     -1.24924      -6.57187      -0.37223
                        -----------------------------------------
Total Dipole Moment    :     -0.10619      -0.97132      -0.01938
                        -----------------------------------------
Magnitude (a.u.)       :      0.97730
Magnitude (Debye)      :      2.48410

CHEMICAL SHIELDING SUMMARY (ppm)
--------------------------

  Nucleus  Element    Isotropic     Anisotropy
  -------  -------  ------------   ------------
      0       C          183.559         13.729
      1       C          156.836         32.805
      2       H           30.313          7.851
      3       H           30.052          8.162
      4       H           30.461          8.688
      5       C          -11.542       -122.049
      6       H           29.400          6.712
      7       H           29.304          5.509
      8       O         -372.365       -979.700
      9       H           21.034          3.951

                             ****ORCA TERMINATED NORMALLY****
TOTAL RUN TIME: 0 days 0 hours 0 minutes 15 seconds 44 msec
