                         Program Version 4.0.0.2 - RELEASE -
|  1> !cc-pvdz OLYP NMR
|  2>
|  3> *xyzfile 0 1 guess.xyz
|  4>
|  5>
|  6>                          ****END OF INPUT****

CARTESIAN COORDINATES (ANGSTROEM)
---------------------------------
  C    -16.861290    1.882200    9.083200
  C    -15.776720    1.316420    8.411440
  C    -14.696660    2.114100    8.010270
  C    -14.720090    3.486330    8.292350
  C    -15.805610    4.053470    8.964860
  C    -16.867930    3.244520    9.354640
  O    -17.946810    3.756580   10.012890
  H    -17.810640    4.710720   10.130240
  H    -17.697230    1.262010    9.393140
  H    -13.892090    4.123370    7.989820
  H    -15.802650    5.118450    9.172850
  H    -15.778790    0.249150    8.202540
  C    -13.537060    1.493410    7.288950
  H    -12.773270    2.237660    7.040700
  H    -13.876000    1.035550    6.354120
  H    -13.068770    0.728190    7.916300

 Total Charge           Charge          ....    0
 Multiplicity           Mult            ....    1
 Number of Electrons    NEL             ....   58
 Basis Dimension        Dim             ....  152

ORBITAL ENERGIES
----------------

  NO   OCC          E(Eh)            E(eV)
   0   2.0000     -18.796826      -511.4876
   1   2.0000      -9.962145      -271.0837
   2   2.0000      -9.909607      -269.6541
   3   2.0000      -9.909057      -269.6391
   4   2.0000      -9.907829      -269.6057
   5   2.0000      -9.907214      -269.5890
   6   2.0000      -9.904993      -269.5286
   7   2.0000      -9.903745      -269.4946
   8   2.0000      -0.972041       -26.4506
   9   2.0000      -0.773335       -21.0435
  10   2.0000      -0.691643       -18.8206
  11   2.0000      -0.673892       -18.3375
  12   2.0000      -0.610293       -16.6069
  13   2.0000      -0.555320       -15.1110
  14   2.0000      -0.523747       -14.2519
  15   2.0000      -0.483437       -13.1550
  16   2.0000      -0.423200       -11.5158
  17   2.0000      -0.407404       -11.0860
  18   2.0000      -0.379114       -10.3162
  19   2.0000      -0.367607       -10.0031
  20   2.0000      -0.366678        -9.9778
  21   2.0000      -0.345829        -9.4105
  22   2.0000      -0.342970        -9.3327
  23   2.0000      -0.314871        -8.5681
  24   2.0000      -0.297875        -8.1056
  25   2.0000      -0.284871        -7.7517
  26   2.0000      -0.273046        -7.4300
  27   2.0000      -0.215986        -5.8773
  28   2.0000      -0.177898        -4.8408
  29   0.0000      -0.025739        -0.7004
  30   0.0000      -0.005444        -0.1481
  31   0.0000       0.024728         0.6729
  32   0.0000       0.047192         1.2842
  33   0.0000       0.069666         1.8957

MULLIKEN ATOMIC CHARGES
-----------------------
   0 C :    0.071671
   1 C :    0.058117
   2 C :   -0.146148
   3 C :    0.065843
   4 C :    0.033868
   5 C :    0.061044
   6 O :   -0.166648
   7 H :    0.121672
   8 H :   -0.052614
   9 H :   -0.070031
  10 H :   -0.058540
  11 H :   -0.074141
  12 C :    0.115240
  13 H :   -0.003904
  14 H :    0.020765
  15 H :    0.023806
Sum of atomic charges:   -0.0000000

LOEWDIN ATOMIC CHARGES
----------------------
   0 C :   -0.036665
   1 C :   -0.014138
   2 C :   -0.055810
   3 C :   -0.019592
   4 C :   -0.066297
   5 C :   -0.063873
   6 O :    0.080305
   7 H :    0.053694
   8 H :    0.022608
   9 H :    0.019194
  10 H :    0.015796
  11 H :    0.020072
  12 C :   -0.044482
  13 H :    0.026229
  14 H :    0.031213
  15 H :    0.031746

  Mayer bond orders larger than 0.1
B(  0-C ,  1-C ) :   1.4684 B(  0-C ,  5-C ) :   1.3697 B(  0-C ,  8-H ) :   0.9240
B(  1-C ,  2-C ) :   1.4076 B(  1-C , 11-H ) :   0.9364 B(  2-C ,  3-C ) :   1.4269
B(  2-C , 12-C ) :   1.1168 B(  3-C ,  4-C ) :   1.4415 B(  3-C ,  9-H ) :   0.9245
B(  4-C ,  5-C ) :   1.3381 B(  4-C , 10-H ) :   0.9237 B(  5-C ,  6-O ) :   1.1923
B(  6-O ,  7-H ) :   1.0066 B( 12-C , 13-H ) :   0.9470 B( 12-C , 14-H ) :   0.9462
B( 12-C , 15-H ) :   0.9454

FINAL SINGLE POINT ENERGY      -346.686741416326

DIPOLE MOMENT
-------------
                                X             Y             Z
Electronic contribution:     -5.15337       2.34299       3.12660
Nuclear contribution   :      5.35527      -1.91936      -3.14489
                        -----------------------------------------
Total Dipole Moment    :      0.20191       0.42363      -0.01829
                        -----------------------------------------
Magnitude (a.u.)       :      0.46964
Magnitude (Debye)      :      1.19372

CHEMICAL SHIELDING SUMMARY (ppm)
--------------------------

  Nucleus  Element    Isotropic     Anisotropy
  -------  -------  ------------   ------------
      0       C           84.962        133.065
      1       C           68.450        151.270
      2       C           69.083        164.537
      3       C           68.809        139.042
      4       C           85.418        113.336
      5       C           47.453        124.500
      6       O          210.600         60.336
      7       H           28.251         11.292
      8       H           24.934          4.847
      9       H           24.662          5.903
     10       H           25.395          5.065
     11       H           24.464          6.390
     12       C          170.208         36.492
     13       H           29.803          6.813
     14       H           29.114          8.093
     15       H           29.084          8.063

                             ****ORCA TERMINATED NORMALLY****
TOTAL RUN TIME: 0 days 0 hours 1 minutes 10 seconds 413 msec
