                         Program Version 4.0.0.2 - RELEASE -
|  1> !aug-cc-pVDZ B3LYP NMR
|  2>
|  3> *xyzfile 0 1 guess.xyz
|  4>
|  5>
|  6>                          ****END OF INPUT****

CARTESIAN COORDINATES (ANGSTROEM)
---------------------------------
  C    -11.257270    3.613040    6.717770
  C    -11.216050    5.157860    6.948300
  H    -10.579860    3.120280    6.015910
  H    -12.269990    3.373740    6.341600
  H    -11.219800    3.069430    7.675670
  C    -10.074170    6.170000    6.610600
  H     -9.331790    5.953500    5.838090
  H     -9.551660    6.511030    7.518280
  H    -10.570820    7.093570    6.255700
  O    -12.189840    5.631450    7.520470

 Total Charge           Charge          ....    0
 Multiplicity           Mult            ....    1
 Number of Electrons    NEL             ....   32
 Basis Dimension        Dim             ....  146

ORBITAL ENERGIES
----------------

  NO   OCC          E(Eh)            E(eV)
   0   2.0000     -19.139739      -520.8188
   1   2.0000     -10.291827      -280.0549
   2   2.0000     -10.198183      -277.5067
   3   2.0000     -10.197960      -277.5006
   4   2.0000      -1.045771       -28.4569
   5   2.0000      -0.748824       -20.3765
   6   2.0000      -0.717203       -19.5161
   7   2.0000      -0.543591       -14.7919
   8   2.0000      -0.467946       -12.7334
   9   2.0000      -0.450890       -12.2693
  10   2.0000      -0.442105       -12.0303
  11   2.0000      -0.405669       -11.0388
  12   2.0000      -0.396610       -10.7923
  13   2.0000      -0.377328       -10.2676
  14   2.0000      -0.345540        -9.4026
  15   2.0000      -0.257052        -6.9947
  16   0.0000      -0.037633        -1.0241
  17   0.0000      -0.012691        -0.3453
  18   0.0000       0.007659         0.2084
  19   0.0000       0.020979         0.5709
  20   0.0000       0.027117         0.7379

MULLIKEN ATOMIC CHARGES
-----------------------
   0 C :    0.832413
   1 C :    0.424625
   2 H :   -0.321266
   3 H :   -0.255428
   4 H :   -0.166977
   5 C :    0.812247
   6 H :   -0.319337
   7 H :   -0.183479
   8 H :   -0.224482
   9 O :   -0.598315
Sum of atomic charges:   -0.0000000

LOEWDIN ATOMIC CHARGES
----------------------
   0 C :   -0.406542
   1 C :   -1.250140
   2 H :    0.232660
   3 H :    0.280281
   4 H :    0.278058
   5 C :   -0.404392
   6 H :    0.234166
   7 H :    0.276190
   8 H :    0.280429
   9 O :    0.479290

  Mayer bond orders larger than 0.1
B(  0-C ,  1-C ) :   0.8508 B(  0-C ,  2-H ) :   0.9253 B(  0-C ,  3-H ) :   0.8865
B(  0-C ,  4-H ) :   0.8605 B(  1-C ,  4-H ) :   0.1006 B(  1-C ,  5-C ) :   0.8656
B(  1-C ,  9-O ) :   1.5831 B(  5-C ,  6-H ) :   0.9267 B(  5-C ,  7-H ) :   0.8535
B(  5-C ,  8-H ) :   0.8938 B(  6-H ,  7-H ) :  -0.1060

FINAL SINGLE POINT ENERGY      -193.049293300544

DIPOLE MOMENT
-------------
                                X             Y             Z
Electronic contribution:     -2.52326       1.22085       1.44475
Nuclear contribution   :      3.38454      -1.64148      -1.93575
                        -----------------------------------------
Total Dipole Moment    :      0.86129      -0.42063      -0.49101
                        -----------------------------------------
Magnitude (a.u.)       :      1.07696
Magnitude (Debye)      :      2.73741

CHEMICAL SHIELDING SUMMARY (ppm)
--------------------------

  Nucleus  Element    Isotropic     Anisotropy
  -------  -------  ------------   ------------
      0       C          162.081         51.374
      1       C          -16.409       -125.245
      2       H           29.367          5.494
      3       H           29.319          5.336
      4       H           29.342          5.675
      5       C          161.809         52.314
      6       H           29.361          5.514
      7       H           29.334          5.627
      8       H           29.278          5.347
      9       O         -337.332       -850.111

                             ****ORCA TERMINATED NORMALLY****
TOTAL RUN TIME: 0 days 0 hours 1 minutes 52 seconds 190 msec
