                         Program Version 4.0.0.2 - RELEASE -
|  1> !cc-pvdz OLYP NMR
|  2>
|  3> *xyzfile 0 1 guess.xyz
|  4>
|  5>
|  6>                          ****END OF INPUT****

CARTESIAN COORDINATES (ANGSTROEM)
---------------------------------
  C     -6.012530    5.171680    0.187560
  C     -7.588080    4.890010    0.566630
  C     -5.713360    3.849560   -0.553280
  H     -5.836740    3.057870    0.216360
  H     -4.683490    3.676640   -0.878770
  H     -6.395500    3.630610   -1.370800
  C     -4.590240    5.320210    0.835040
  H     -4.229680    4.480740    1.430750
  H     -4.358590    6.264790    1.341800
  H     -3.877450    5.366240   -0.029310
  C     -6.108340    6.649220   -0.331370
  H     -5.155240    7.131460   -0.591100
  H     -6.457750    7.264390    0.527700
  H     -6.815380    6.821570   -1.140390
  O     -8.443040    5.801740    0.617700
  O     -8.005130    3.565010    0.507720
  C     -9.431630    3.297100    0.297280
  C     -9.772350    1.799170    0.184220
  H     -9.765440    3.778420   -0.631980
  H     -9.997900    3.707490    1.138170
  H     -9.394380    1.354300   -0.744380
  H    -10.862770    1.650450    0.179790
  H     -9.361550    1.216950    1.014260

 Total Charge           Charge          ....    0
 Multiplicity           Mult            ....    1
 Number of Electrons    NEL             ....   72
 Basis Dimension        Dim             ....  196

ORBITAL ENERGIES
----------------

  NO   OCC          E(Eh)            E(eV)
   0   2.0000     -18.810904      -511.8707
   1   2.0000     -18.751529      -510.2550
   2   2.0000     -10.034667      -273.0572
   3   2.0000      -9.972681      -271.3705
   4   2.0000      -9.958158      -270.9753
   5   2.0000      -9.919352      -269.9193
   6   2.0000      -9.916139      -269.8319
   7   2.0000      -9.903135      -269.4780
   8   2.0000      -9.902984      -269.4739
   9   2.0000      -0.990540       -26.9540
  10   2.0000      -0.906167       -24.6581
  11   2.0000      -0.743098       -20.2207
  12   2.0000      -0.697080       -18.9685
  13   2.0000      -0.629725       -17.1357
  14   2.0000      -0.611298       -16.6343
  15   2.0000      -0.581941       -15.8354
  16   2.0000      -0.528912       -14.3924
  17   2.0000      -0.487024       -13.2526
  18   2.0000      -0.432756       -11.7759
  19   2.0000      -0.422343       -11.4925
  20   2.0000      -0.403888       -10.9903
  21   2.0000      -0.389097       -10.5879
  22   2.0000      -0.384089       -10.4516
  23   2.0000      -0.363432        -9.8895
  24   2.0000      -0.355644        -9.6776
  25   2.0000      -0.343766        -9.3544
  26   2.0000      -0.341232        -9.2854
  27   2.0000      -0.325147        -8.8477
  28   2.0000      -0.314719        -8.5640
  29   2.0000      -0.307585        -8.3698
  30   2.0000      -0.296748        -8.0749
  31   2.0000      -0.292034        -7.9467
  32   2.0000      -0.277321        -7.5463
  33   2.0000      -0.252953        -6.8832
  34   2.0000      -0.239936        -6.5290
  35   2.0000      -0.204723        -5.5708
  36   0.0000      -0.032104        -0.8736
  37   0.0000       0.027592         0.7508
  38   0.0000       0.040141         1.0923
  39   0.0000       0.051394         1.3985
  40   0.0000       0.076549         2.0830

MULLIKEN ATOMIC CHARGES
-----------------------
   0 C :   -0.371175
   1 C :    0.323327
   2 C :    0.126807
   3 H :    0.035296
   4 H :   -0.019526
   5 H :   -0.012813
   6 C :    0.086416
   7 H :   -0.007765
   8 H :   -0.005500
   9 H :    0.038984
  10 C :    0.108774
  11 H :   -0.009517
  12 H :    0.040259
  13 H :   -0.007394
  14 O :   -0.270987
  15 O :   -0.297762
  16 C :    0.150549
  17 C :    0.006919
  18 H :    0.014789
  19 H :    0.020241
  20 H :    0.011728
  21 H :    0.020712
  22 H :    0.017637
Sum of atomic charges:    0.0000000

LOEWDIN ATOMIC CHARGES
----------------------
   0 C :   -0.076207
   1 C :   -0.080007
   2 C :   -0.050216
   3 H :    0.039166
   4 H :    0.015587
   5 H :    0.011089
   6 C :   -0.041848
   7 H :    0.014926
   8 H :    0.017899
   9 H :    0.042731
  10 C :   -0.042779
  11 H :    0.020501
  12 H :    0.042868
  13 H :    0.013431
  14 O :   -0.062412
  15 O :    0.050512
  16 C :    0.018247
  17 C :   -0.060266
  18 H :    0.019640
  19 H :    0.019189
  20 H :    0.024363
  21 H :    0.037341
  22 H :    0.026244

  Mayer bond orders larger than 0.1
B(  0-C ,  1-C ) :   0.9068 B(  0-C ,  2-C ) :   1.0240 B(  0-C ,  6-C ) :   1.0322
B(  0-C , 10-C ) :   1.0272 B(  1-C , 14-O ) :   2.0065 B(  1-C , 15-O ) :   1.1438
B(  2-C ,  3-H ) :   0.9444 B(  2-C ,  4-H ) :   0.9554 B(  2-C ,  5-H ) :   0.9559
B(  6-C ,  7-H ) :   0.9594 B(  6-C ,  8-H ) :   0.9580 B(  6-C ,  9-H ) :   0.9476
B( 10-C , 11-H ) :   0.9570 B( 10-C , 12-H ) :   0.9473 B( 10-C , 13-H ) :   0.9585
B( 14-O , 15-O ) :   0.1057 B( 15-O , 16-C ) :   0.9264 B( 16-C , 17-C ) :   1.1166
B( 16-C , 18-H ) :   0.9476 B( 16-C , 19-H ) :   0.9503 B( 17-C , 20-H ) :   0.9673
B( 17-C , 21-H ) :   0.9563 B( 17-C , 22-H ) :   0.9648

FINAL SINGLE POINT ENERGY      -425.412413240254

DIPOLE MOMENT
-------------
                                X             Y             Z
Electronic contribution:     -4.66342       2.30321       2.65809
Nuclear contribution   :      4.86314      -2.96154      -2.85809
                        -----------------------------------------
Total Dipole Moment    :      0.19972      -0.65833      -0.20000
                        -----------------------------------------
Magnitude (a.u.)       :      0.71644
Magnitude (Debye)      :      1.82104

CHEMICAL SHIELDING SUMMARY (ppm)
--------------------------

  Nucleus  Element    Isotropic     Anisotropy
  -------  -------  ------------   ------------
      0       C          134.091         85.221
      1       C           14.374        -88.107
      2       C          155.024         41.356
      3       H           28.576          5.677
      4       H           30.115          6.609
      5       H           30.004          7.564
      6       C          147.712         57.305
      7       H           29.549          7.804
      8       H           29.506          8.094
      9       H           28.827          6.478
     10       C          156.122         43.535
     11       H           30.075          6.987
     12       H           28.653          6.094
     13       H           30.154          8.679
     14       O         -134.371       -331.945
     15       O           89.208         65.659
     16       C          124.240         65.769
     17       C          175.576         25.958
     18       H           27.416          5.566
     19       H           27.102          5.943
     20       H           30.071          7.413
     21       H           30.197          9.059
     22       H           30.133          7.545

                             ****ORCA TERMINATED NORMALLY****
TOTAL RUN TIME: 0 days 0 hours 2 minutes 22 seconds 976 msec
