                         Program Version 4.0.0.2 - RELEASE -
|  1> !cc-pvdz OLYP NMR
|  2>
|  3> *xyzfile 0 1 guess.xyz
|  4>
|  5>
|  6>                          ****END OF INPUT****

CARTESIAN COORDINATES (ANGSTROEM)
---------------------------------
  C    -19.459240    2.355020   10.503830
  C    -18.168570    2.305240    9.911280
  C    -17.450500    3.475670    9.707430
  C    -17.975450    4.672240   10.234680
  C    -19.227980    4.703560   10.917320
  C    -19.964430    3.534860   11.077050
  H    -20.910000    3.521560   11.643470
  H    -20.085440    1.466610   10.475890
  H    -19.627990    5.651330   11.294580
  H    -17.393840    5.587990   10.142150
  H    -16.507880    3.462220    9.135840
  H    -17.736180    1.338680    9.635030

 Total Charge           Charge          ....    0
 Multiplicity           Mult            ....    1
 Number of Electrons    NEL             ....   42
 Basis Dimension        Dim             ....  114

ORBITAL ENERGIES
----------------

  NO   OCC          E(Eh)            E(eV)
   0   2.0000      -9.918285      -269.8903
   1   2.0000      -9.917835      -269.8780
   2   2.0000      -9.917339      -269.8645
   3   2.0000      -9.917190      -269.8605
   4   2.0000      -9.916921      -269.8531
   5   2.0000      -9.916685      -269.8467
   6   2.0000      -0.771267       -20.9872
   7   2.0000      -0.676720       -18.4145
   8   2.0000      -0.665588       -18.1116
   9   2.0000      -0.539365       -14.6769
  10   2.0000      -0.534575       -14.5465
  11   2.0000      -0.459995       -12.5171
  12   2.0000      -0.407431       -11.0868
  13   2.0000      -0.386854       -10.5268
  14   2.0000      -0.371753       -10.1159
  15   2.0000      -0.358306        -9.7500
  16   2.0000      -0.316506        -8.6126
  17   2.0000      -0.296313        -8.0631
  18   2.0000      -0.292529        -7.9601
  19   2.0000      -0.221180        -6.0186
  20   2.0000      -0.211455        -5.7540
  21   0.0000      -0.032973        -0.8972
  22   0.0000      -0.027461        -0.7473
  23   0.0000       0.034342         0.9345
  24   0.0000       0.071919         1.9570
  25   0.0000       0.076089         2.0705

MULLIKEN ATOMIC CHARGES
-----------------------
   0 C :    0.045716
   1 C :    0.049919
   2 C :    0.044580
   3 C :    0.046513
   4 C :    0.051743
   5 C :    0.046481
   6 H :   -0.044688
   7 H :   -0.046531
   8 H :   -0.050672
   9 H :   -0.048810
  10 H :   -0.044253
  11 H :   -0.049998
Sum of atomic charges:   -0.0000000

LOEWDIN ATOMIC CHARGES
----------------------
   0 C :   -0.018299
   1 C :   -0.021769
   2 C :   -0.026082
   3 C :   -0.018502
   4 C :   -0.022131
   5 C :   -0.026477
   6 H :    0.025514
   7 H :    0.019642
   8 H :    0.021657
   9 H :    0.019305
  10 H :    0.025557
  11 H :    0.021586

  Mayer bond orders larger than 0.1
B(  0-C ,  1-C ) :   1.4348 B(  0-C ,  5-C ) :   1.4380 B(  0-C ,  7-H ) :   0.9408
B(  1-C ,  2-C ) :   1.4471 B(  1-C , 11-H ) :   0.9410 B(  2-C ,  3-C ) :   1.4329
B(  2-C , 10-H ) :   0.9432 B(  3-C ,  4-C ) :   1.4305 B(  3-C ,  9-H ) :   0.9420
B(  4-C ,  5-C ) :   1.4438 B(  4-C ,  8-H ) :   0.9415 B(  5-C ,  6-H ) :   0.9423

FINAL SINGLE POINT ENERGY      -232.174872139061

DIPOLE MOMENT
-------------
                                X             Y             Z
Electronic contribution:      0.01123       0.00806       0.01497
Nuclear contribution   :     -0.01312      -0.01575      -0.02132
                        -----------------------------------------
Total Dipole Moment    :     -0.00189      -0.00769      -0.00635
                        -----------------------------------------
Magnitude (a.u.)       :      0.01015
Magnitude (Debye)      :      0.02580

CHEMICAL SHIELDING SUMMARY (ppm)
--------------------------

  Nucleus  Element    Isotropic     Anisotropy
  -------  -------  ------------   ------------
      0       C           67.396        165.097
      1       C           67.747        162.964
      2       C           68.113        163.036
      3       C           67.340        165.623
      4       C           67.743        163.766
      5       C           68.188        162.753
      6       H           23.889          4.493
      7       H           24.227          4.845
      8       H           24.027          4.727
      9       H           24.182          4.901
     10       H           23.834          4.577
     11       H           24.062          4.704

                             ****ORCA TERMINATED NORMALLY****
TOTAL RUN TIME: 0 days 0 hours 0 minutes 32 seconds 906 msec
