                         Program Version 4.0.0.2 - RELEASE -
|  1> !aug-cc-pVDZ B3LYP NMR
|  2>
|  3> *xyzfile 1 1 guess.xyz
|  4>
|  5>
|  6>                          ****END OF INPUT****

CARTESIAN COORDINATES (ANGSTROEM)
---------------------------------
  C     -2.052270    4.037580   -0.003600
  C     -1.410950    5.262220    0.002790
  C      0.035630    5.380780    0.036900
  C     -1.239730    2.933320   -0.000550
  C      0.179440    3.047480    0.039080
  C      0.971410    4.276770    0.093990
  H     -2.054160    6.142980   -0.011620
  H      0.400260    6.400560    0.018350
  H     -1.745580    1.958870   -0.022820
  H     -3.139450    3.924870   -0.015740
  C      2.538690    4.161580    0.180850
  C      3.057810    2.760790    0.089690
  C      2.134760    1.641900    0.033110
  C      0.769350    1.808670    0.016940
  H      0.128840    0.917350   -0.026180
  C      4.404730    2.317780    0.024770
  C      4.782060    0.946660   -0.018010
  C      3.841080   -0.069780   -0.022080
  C      2.513410    0.286880   -0.012010
  H      5.220480    3.027160    0.002730
  H      5.831780    0.663730   -0.041190
  H      4.121980   -1.122120   -0.037870
  H      1.773220   -0.520590   -0.032280
  C      3.693480    5.483870    0.083110
  N      4.584520    6.375040    1.395960
  H      3.232720    6.283810   -0.502600
  H      4.538280    5.084680   -0.495370
  C      5.778320    7.720720    1.183910
  C      6.696120    8.592090    2.348930
  H      5.206860    8.463040    0.616410
  H      6.526060    7.257390    0.529820
  C      8.047110    8.253850    2.683730
  C      8.939380    9.069020    3.529400
  C      8.557220   10.292250    4.094750
  C      7.293250   10.722770    3.718230
  C      6.395910    9.908630    2.862590
  H      8.518030    7.364910    2.269300
  H      9.962480    8.724710    3.726850
  H      6.991670   11.720950    4.051560
  H      5.477720   10.434130    2.604980
  O      9.471790   10.981790    4.868660
  C      9.057320   11.878690    5.788740
  C      8.808800   12.679550    6.647810
  H      8.644530   13.394460    7.439150
  H      5.087110    5.655180    1.925650
  H      3.847230    6.762000    1.990270

 Total Charge           Charge          ....    1
 Multiplicity           Mult            ....    1
 Number of Electrons    NEL             ....  178
 Basis Dimension        Dim             ....  778

ORBITAL ENERGIES
----------------

  NO   OCC          E(Eh)            E(eV)
   0   2.0000     -19.326507      -525.9010
   1   2.0000     -14.567136      -396.3919
   2   2.0000     -10.412019      -283.3254
   3   2.0000     -10.404454      -283.1196
   4   2.0000     -10.371028      -282.2100
   5   2.0000     -10.363011      -281.9919
   6   2.0000     -10.353813      -281.7416
   7   2.0000     -10.342530      -281.4346
   8   2.0000     -10.331974      -281.1473
   9   2.0000     -10.329399      -281.0772
  10   2.0000     -10.327658      -281.0299
  11   2.0000     -10.324534      -280.9448
  12   2.0000     -10.310647      -280.5670
  13   2.0000     -10.310143      -280.5533
  14   2.0000     -10.306761      -280.4612
  15   2.0000     -10.306401      -280.4514
  16   2.0000     -10.304759      -280.4067
  17   2.0000     -10.303715      -280.3783
  18   2.0000     -10.303127      -280.3623
  19   2.0000     -10.301539      -280.3191
  20   2.0000     -10.301062      -280.3062
  21   2.0000     -10.296673      -280.1867
  22   2.0000     -10.294823      -280.1364
  23   2.0000     -10.285655      -279.8869
  24   2.0000     -10.284908      -279.8666
  25   2.0000     -10.269974      -279.4602
  26   2.0000      -1.206444       -32.8290
  27   2.0000      -1.056550       -28.7502
  28   2.0000      -0.991928       -26.9917
  29   2.0000      -0.961161       -26.1545
  30   2.0000      -0.960275       -26.1304
  31   2.0000      -0.909448       -24.7473
  32   2.0000      -0.895389       -24.3648
  33   2.0000      -0.890527       -24.2325
  34   2.0000      -0.857544       -23.3349
  35   2.0000      -0.851777       -23.1780
  36   2.0000      -0.847477       -23.0610
  37   2.0000      -0.840097       -22.8602
  38   2.0000      -0.832041       -22.6410
  39   2.0000      -0.814737       -22.1701
  40   2.0000      -0.789634       -21.4870
  41   2.0000      -0.753937       -20.5157
  42   2.0000      -0.743400       -20.2289
  43   2.0000      -0.723537       -19.6884
  44   2.0000      -0.722000       -19.6466
  45   2.0000      -0.699721       -19.0404
  46   2.0000      -0.696828       -18.9616
  47   2.0000      -0.684133       -18.6162
  48   2.0000      -0.671346       -18.2683
  49   2.0000      -0.643570       -17.5124
  50   2.0000      -0.626622       -17.0513
  51   2.0000      -0.606583       -16.5060
  52   2.0000      -0.602989       -16.4082
  53   2.0000      -0.592727       -16.1289
  54   2.0000      -0.591868       -16.1055
  55   2.0000      -0.572887       -15.5890
  56   2.0000      -0.569883       -15.5073
  57   2.0000      -0.565353       -15.3840
  58   2.0000      -0.563799       -15.3417
  59   2.0000      -0.562278       -15.3004
  60   2.0000      -0.561366       -15.2756
  61   2.0000      -0.551638       -15.0108
  62   2.0000      -0.549505       -14.9528
  63   2.0000      -0.544986       -14.8298
  64   2.0000      -0.538322       -14.6485
  65   2.0000      -0.517131       -14.0718
  66   2.0000      -0.515048       -14.0152
  67   2.0000      -0.511293       -13.9130
  68   2.0000      -0.509188       -13.8557
  69   2.0000      -0.507821       -13.8185
  70   2.0000      -0.504465       -13.7272
  71   2.0000      -0.493213       -13.4210
  72   2.0000      -0.486594       -13.2409
  73   2.0000      -0.474155       -12.9024
  74   2.0000      -0.470434       -12.8012
  75   2.0000      -0.462215       -12.5775
  76   2.0000      -0.454689       -12.3727
  77   2.0000      -0.452792       -12.3211
  78   2.0000      -0.440643       -11.9905
  79   2.0000      -0.435589       -11.8530
  80   2.0000      -0.410774       -11.1777
  81   2.0000      -0.406456       -11.0602
  82   2.0000      -0.382650       -10.4124
  83   2.0000      -0.364789        -9.9264
  84   2.0000      -0.363846        -9.9008
  85   2.0000      -0.353556        -9.6208
  86   2.0000      -0.351602        -9.5676
  87   2.0000      -0.335667        -9.1340
  88   2.0000      -0.304390        -8.2829
  89   0.0000      -0.220318        -5.9952
  90   0.0000      -0.185740        -5.0543
  91   0.0000      -0.141225        -3.8429
  92   0.0000      -0.139076        -3.7844
  93   0.0000      -0.133039        -3.6202

MULLIKEN ATOMIC CHARGES
-----------------------
   0 C :   -0.135770
   1 C :    0.010496
   2 C :    1.431329
   3 C :    0.192649
   4 C :    1.533161
   5 C :    1.302904
   6 H :   -0.843392
   7 H :   -1.106122
   8 H :   -1.189997
   9 H :   -0.802459
  10 C :    1.107304
  11 C :    0.903485
  12 C :    1.156992
  13 C :    0.973589
  14 H :   -1.105040
  15 C :    1.200929
  16 C :   -0.068914
  17 C :    0.117166
  18 C :    0.159934
  19 H :   -1.151221
  20 H :   -0.901917
  21 H :   -0.849551
  22 H :   -1.114830
  23 C :    0.898806
  24 N :   -0.161329
  25 H :   -0.565270
  26 H :   -0.488731
  27 C :    0.463792
  28 C :    0.921931
  29 H :   -0.480146
  30 H :   -0.492614
  31 C :    1.313016
  32 C :    0.943211
  33 C :   -0.688479
  34 C :    1.402801
  35 C :    1.136893
  36 H :   -0.988492
  37 H :   -0.926941
  38 H :   -0.980749
  39 H :   -0.947010
  40 O :   -0.674121
  41 C :   -0.419190
  42 C :    1.360850
  43 H :   -0.633044
  44 H :    0.083875
  45 H :    0.100218
Sum of atomic charges:    1.0000000

LOEWDIN ATOMIC CHARGES
----------------------
   0 C :   -0.230519
   1 C :   -0.177746
   2 C :   -0.046600
   3 C :   -0.120555
   4 C :   -0.475889
   5 C :   -0.303144
   6 H :    0.314157
   7 H :    0.297843
   8 H :    0.345601
   9 H :    0.323915
  10 C :   -0.147094
  11 C :   -0.422946
  12 C :   -0.473806
  13 C :   -0.052652
  14 H :    0.370207
  15 C :   -0.087876
  16 C :   -0.177162
  17 C :   -0.206009
  18 C :   -0.106901
  19 H :    0.303521
  20 H :    0.314984
  21 H :    0.320155
  22 H :    0.346099
  23 C :   -0.264557
  24 N :    0.152312
  25 H :    0.276774
  26 H :    0.288039
  27 C :   -0.255396
  28 C :   -0.606824
  29 H :    0.282673
  30 H :    0.286386
  31 C :   -0.145546
  32 C :   -0.084555
  33 C :   -0.746868
  34 C :   -0.119321
  35 C :   -0.115140
  36 H :    0.295595
  37 H :    0.318555
  38 H :    0.319121
  39 H :    0.294444
  40 O :    0.409331
  41 C :   -0.340547
  42 C :    0.210675
  43 H :    0.130912
  44 H :    0.255117
  45 H :    0.251237

  Mayer bond orders larger than 0.1
B(  0-C ,  1-C ) :   1.8993 B(  0-C ,  2-C ) :  -0.2200 B(  0-C ,  3-C ) :   2.6086
B(  0-C ,  4-C ) :  -2.9865 B(  0-C ,  6-H ) :   0.4190 B(  0-C ,  7-H ) :  -0.1155
B(  0-C ,  8-H ) :   1.1026 B(  0-C ,  9-H ) :  -0.7437 B(  0-C , 10-C ) :   0.1620
B(  0-C , 11-C ) :   0.3961 B(  0-C , 12-C ) :   0.4087 B(  0-C , 13-C ) :   0.3363
B(  1-C ,  2-C ) :   0.9090 B(  1-C ,  4-C ) :  -0.3662 B(  1-C ,  5-C ) :  -0.8860
B(  1-C ,  6-H ) :  -0.4254 B(  1-C ,  7-H ) :   1.1664 B(  1-C ,  8-H ) :  -0.2435
B(  1-C ,  9-H ) :   0.2082 B(  1-C , 10-C ) :   0.5124 B(  1-C , 11-C ) :   0.2310
B(  1-C , 12-C ) :   0.1368 B(  1-C , 13-C ) :  -0.1823 B(  1-C , 23-C ) :   0.1643
B(  2-C ,  4-C ) :  -0.8160 B(  2-C ,  5-C ) :  -0.1387 B(  2-C ,  6-H ) :   0.1836
B(  2-C ,  7-H ) :  -2.4120 B(  2-C , 10-C ) :  -0.7171 B(  2-C , 11-C ) :   0.3300
B(  2-C , 12-C ) :  -0.1325 B(  2-C , 13-C ) :   0.7702 B(  2-C , 15-C ) :   0.2484
B(  2-C , 18-C ) :   0.1215 B(  2-C , 25-H ) :   0.4085 B(  3-C ,  4-C ) :  -2.1103
B(  3-C ,  5-C ) :  -2.0184 B(  3-C ,  6-H ) :  -0.1375 B(  3-C ,  7-H ) :   0.1631
B(  3-C ,  8-H ) :  -2.7236 B(  3-C ,  9-H ) :   0.6863 B(  3-C , 10-C ) :   0.3529
B(  3-C , 11-C ) :  -0.2080 B(  3-C , 12-C ) :   0.4104 B(  3-C , 13-C ) :  -2.3890
B(  3-C , 18-C ) :   0.1320 B(  4-C ,  5-C ) :   1.4908 B(  4-C ,  6-H ) :  -0.1242
B(  4-C ,  7-H ) :  -1.1438 B(  4-C ,  8-H ) :   2.8071 B(  4-C ,  9-H ) :   0.6045
B(  4-C , 10-C ) :  -1.1474 B(  4-C , 11-C ) :  -1.2742 B(  4-C , 12-C ) :  -0.7583
B(  4-C , 13-C ) :   0.8436 B(  4-C , 14-H ) :   1.1053 B(  4-C , 15-C ) :  -0.1310
B(  4-C , 16-C ) :   0.1864 B(  4-C , 17-C ) :   0.5195 B(  4-C , 18-C ) :   0.3712
B(  4-C , 23-C ) :   0.1413 B(  4-C , 24-N ) :  -0.1029 B(  4-C , 25-H ) :  -0.1474
B(  5-C ,  6-H ) :   0.3612 B(  5-C ,  7-H ) :   1.3819 B(  5-C ,  9-H ) :  -0.5938
B(  5-C , 10-C ) :   0.3322 B(  5-C , 11-C ) :  -0.6976 B(  5-C , 12-C ) :  -0.8347
B(  5-C , 13-C ) :   0.6597 B(  5-C , 14-H ) :  -0.3167 B(  5-C , 15-C ) :   0.1970
B(  5-C , 16-C ) :   0.1403 B(  5-C , 17-C ) :   0.4239 B(  5-C , 18-C ) :  -0.4820
B(  5-C , 19-H ) :   0.2204 B(  5-C , 25-H ) :  -0.7705 B(  7-H , 10-C ) :   0.3125
B(  7-H , 11-C ) :   0.3706 B(  8-H , 10-C ) :   0.1595 B(  8-H , 12-C ) :  -0.1169
B(  8-H , 13-C ) :  -1.5092 B(  8-H , 14-H ) :  -0.2075 B(  9-H , 13-C ) :   0.2196
B( 10-C , 11-C ) :   0.7751 B( 10-C , 12-C ) :  -0.4552 B( 10-C , 13-C ) :  -0.1311
B( 10-C , 14-H ) :   0.2183 B( 10-C , 15-C ) :  -1.3112 B( 10-C , 17-C ) :   0.1934
B( 10-C , 18-C ) :   0.4563 B( 10-C , 19-H ) :  -0.3041 B( 10-C , 22-H ) :   0.1091
B( 10-C , 23-C ) :   0.8795 B( 10-C , 24-N ) :  -0.2906 B( 10-C , 25-H ) :   0.1180
B( 10-C , 26-H ) :  -0.5575 B( 10-C , 27-C ) :  -0.2224 B( 10-C , 28-C ) :   0.2049
B( 10-C , 31-C ) :  -0.1494 B( 10-C , 44-H ) :  -0.1507 B( 11-C , 12-C ) :   1.3375
B( 11-C , 13-C ) :  -1.1470 B( 11-C , 14-H ) :  -0.3642 B( 11-C , 15-C ) :  -1.6788
B( 11-C , 16-C ) :  -0.5914 B( 11-C , 17-C ) :  -0.2437 B( 11-C , 18-C ) :  -2.6205
B( 11-C , 19-H ) :   1.8444 B( 11-C , 20-H ) :   0.5395 B( 11-C , 21-H ) :  -0.4580
B( 11-C , 23-C ) :   0.2578 B( 11-C , 24-N ) :   0.1139 B( 11-C , 25-H ) :   0.2301
B( 11-C , 27-C ) :   0.2032 B( 11-C , 28-C ) :  -0.1266 B( 11-C , 44-H ) :   0.1238
B( 12-C , 13-C ) :   0.5840 B( 12-C , 14-H ) :   1.4565 B( 12-C , 15-C ) :  -1.5565
B( 12-C , 16-C ) :  -0.4823 B( 12-C , 17-C ) :  -2.5729 B( 12-C , 18-C ) :  -1.9075
B( 12-C , 19-H ) :  -0.6627 B( 12-C , 20-H ) :  -0.2369 B( 12-C , 21-H ) :   0.5950
B( 12-C , 22-H ) :   2.4590 B( 13-C , 14-H ) :  -2.6665 B( 13-C , 15-C ) :   2.0137
B( 13-C , 16-C ) :  -0.4079 B( 13-C , 17-C ) :   0.6293 B( 13-C , 18-C ) :  -2.1075
B( 13-C , 21-H ) :   0.1282 B( 13-C , 22-H ) :  -1.2656 B( 13-C , 23-C ) :   0.1561
B( 14-H , 22-H ) :  -0.1881 B( 15-C , 16-C ) :   1.1809 B( 15-C , 17-C ) :  -0.2551
B( 15-C , 18-C ) :   0.2690 B( 15-C , 19-H ) :  -3.0357 B( 15-C , 20-H ) :   0.5132
B( 15-C , 21-H ) :  -0.1077 B( 15-C , 23-C ) :  -0.2624 B( 15-C , 26-H ) :   0.3231
B( 16-C , 17-C ) :   2.1153 B( 16-C , 19-H ) :   1.3254 B( 16-C , 20-H ) :  -0.6263
B( 16-C , 21-H ) :   0.1557 B( 16-C , 22-H ) :  -0.1989 B( 16-C , 23-C ) :   0.2158
B( 17-C , 18-C ) :   2.2096 B( 17-C , 19-H ) :  -0.1866 B( 17-C , 20-H ) :   0.2750
B( 17-C , 21-H ) :  -0.7458 B( 17-C , 22-H ) :   0.9916 B( 17-C , 23-C ) :  -0.3221
B( 18-C , 19-H ) :   0.1329 B( 18-C , 20-H ) :  -0.2106 B( 18-C , 21-H ) :   0.7392
B( 18-C , 22-H ) :  -2.4107 B( 18-C , 23-C ) :   0.1221 B( 23-C , 24-N ) :   0.7184
B( 23-C , 25-H ) :   0.7174 B( 23-C , 26-H ) :   0.8901 B( 23-C , 27-C ) :   0.2875
B( 24-N , 27-C ) :   0.5422 B( 24-N , 28-C ) :  -0.1574 B( 24-N , 44-H ) :   1.0860
B( 24-N , 45-H ) :   1.0574 B( 27-C , 28-C ) :   0.5964 B( 27-C , 29-H ) :   0.9683
B( 27-C , 30-H ) :   0.9520 B( 27-C , 31-C ) :  -0.1657 B( 27-C , 32-C ) :   0.2555
B( 27-C , 33-C ) :  -0.1482 B( 27-C , 34-C ) :   0.1552 B( 28-C , 29-H ) :  -0.3681
B( 28-C , 30-H ) :  -0.3826 B( 28-C , 31-C ) :   1.4936 B( 28-C , 32-C ) :  -0.8210
B( 28-C , 33-C ) :   0.9495 B( 28-C , 34-C ) :  -0.7309 B( 28-C , 35-C ) :   1.7030
B( 28-C , 36-H ) :   0.4864 B( 28-C , 38-H ) :  -0.1568 B( 28-C , 39-H ) :   0.4429
B( 29-H , 30-H ) :  -0.1207 B( 29-H , 35-C ) :   0.1277 B( 30-H , 31-C ) :   0.1352
B( 31-C , 32-C ) :   1.3918 B( 31-C , 33-C ) :  -0.3097 B( 31-C , 34-C ) :   0.1072
B( 31-C , 35-C ) :  -0.1351 B( 31-C , 36-H ) :  -1.1105 B( 32-C , 33-C ) :   1.5747
B( 32-C , 34-C ) :  -0.3659 B( 32-C , 35-C ) :   0.1578 B( 32-C , 36-H ) :   0.5818
B( 32-C , 37-H ) :  -1.2236 B( 32-C , 42-C ) :  -0.1415 B( 33-C , 34-C ) :   0.6312
B( 33-C , 35-C ) :  -0.3503 B( 33-C , 36-H ) :  -0.1602 B( 33-C , 37-H ) :   1.3357
B( 33-C , 38-H ) :   1.2773 B( 33-C , 39-H ) :  -0.1545 B( 33-C , 40-O ) :   0.1539
B( 33-C , 42-C ) :   0.1400 B( 34-C , 35-C ) :   1.3445 B( 34-C , 36-H ) :   0.1016
B( 34-C , 38-H ) :  -1.3752 B( 34-C , 39-H ) :   0.5096 B( 34-C , 42-C ) :   0.1038
B( 35-C , 39-H ) :  -0.9369 B( 38-H , 41-C ) :  -0.1162 B( 40-O , 41-C ) :   1.1786
B( 40-O , 42-C ) :  -0.1377 B( 41-C , 42-C ) :   2.7384 B( 41-C , 43-H ) :   1.0733
B( 42-C , 43-H ) :  -0.8059

FINAL SINGLE POINT ENERGY     -1055.507237276443

DIPOLE MOMENT
-------------
                                X             Y             Z
Electronic contribution:      4.40978       3.90948       5.72153
Nuclear contribution   :     -5.01898      -4.15235      -6.43270
                        -----------------------------------------
Total Dipole Moment    :     -0.60920      -0.24287      -0.71118
                        -----------------------------------------
Magnitude (a.u.)       :      0.96741
Magnitude (Debye)      :      2.45897

CHEMICAL SHIELDING SUMMARY (ppm)
--------------------------

  Nucleus  Element    Isotropic     Anisotropy
  -------  -------  ------------   ------------
      0       C           63.941        175.946
      1       C           51.317        179.426
      2       C           63.417        163.179
      3       C           48.881        145.047
      4       C           58.952        195.009
      5       C           41.624        184.470
      6       H           22.890          6.834
      7       H           23.321          9.056
      8       H           22.493          9.407
      9       H           23.212          5.447
     10       C           25.819        115.374
     11       C           49.261        183.304
     12       C           64.300        190.574
     13       C           38.557        135.896
     14       H           21.981         11.687
     15       C           71.825        153.441
     16       C           55.632        180.441
     17       C           65.781        173.004
     18       C           51.704        150.070
     19       H           23.512          9.724
     20       H           23.120          6.959
     21       H           23.408          5.621
     22       H           22.612          8.935
     23       C           76.843        128.909
     24       N          167.809         85.168
     25       H           24.158          6.519
     26       H           23.683          6.966
     27       C           86.552         90.341
     28       C           35.283        135.631
     29       H           25.341          6.649
     30       H           25.314          7.015
     31       C           48.252        161.924
     32       C           61.659        146.531
     33       C           28.046        132.599
     34       C           62.347        154.086
     35       C           47.310        166.968
     36       H           23.609          7.895
     37       H           23.834          6.935
     38       H           23.413          8.388
     39       H           23.552          7.862
     40       O          216.309         47.966
     41       C          110.557        265.087
     42       C          154.944        155.914
     43       H           29.259         14.532
     44       H           27.001          7.224
     45       H           27.052          7.395

                             ****ORCA TERMINATED NORMALLY****
TOTAL RUN TIME: 0 days 20 hours 36 minutes 11 seconds 580 msec
