                         Program Version 4.0.0.2 - RELEASE -
|  1> !cc-pvdz OLYP NMR
|  2>
|  3> *xyzfile 0 1 guess.xyz
|  4>
|  5>
|  6>                          ****END OF INPUT****

CARTESIAN COORDINATES (ANGSTROEM)
---------------------------------
  C    -12.843110   -1.122300    6.891740
  C    -12.212950    0.071040    6.149470
  H    -13.330350   -0.881440    7.836630
  H    -12.173460   -1.982440    7.018700
  H    -13.655380   -1.512010    6.247240
  C    -11.533330    1.315160    6.751990
  H    -11.946700    1.667370    7.696340
  H    -11.690580    2.146840    6.038630
  H    -10.440420    1.239310    6.826440
  C    -11.164610   -0.526810    5.210490
  H    -10.280020   -0.808760    5.804260
  H    -10.843120    0.183530    4.444590
  H    -11.509540   -1.437880    4.713240
  O    -13.377660    0.658660    5.535080
  H    -13.902700    0.971450    6.265670

 Total Charge           Charge          ....    0
 Multiplicity           Mult            ....    1
 Number of Electrons    NEL             ....   42
 Basis Dimension        Dim             ....  120

ORBITAL ENERGIES
----------------

  NO   OCC          E(Eh)            E(eV)
   0   2.0000     -18.749023      -510.1868
   1   2.0000      -9.967012      -271.2162
   2   2.0000      -9.902046      -269.4484
   3   2.0000      -9.901578      -269.4356
   4   2.0000      -9.900654      -269.4105
   5   2.0000      -0.929004       -25.2795
   6   2.0000      -0.710266       -19.3273
   7   2.0000      -0.630273       -17.1506
   8   2.0000      -0.608845       -16.5675
   9   2.0000      -0.508371       -13.8335
  10   2.0000      -0.427927       -11.6445
  11   2.0000      -0.396006       -10.7759
  12   2.0000      -0.391666       -10.6578
  13   2.0000      -0.357316        -9.7231
  14   2.0000      -0.340702        -9.2710
  15   2.0000      -0.329160        -8.9569
  16   2.0000      -0.315757        -8.5922
  17   2.0000      -0.300149        -8.1675
  18   2.0000      -0.297697        -8.1007
  19   2.0000      -0.249453        -6.7880
  20   2.0000      -0.197784        -5.3820
  21   0.0000       0.028795         0.7836
  22   0.0000       0.065240         1.7753
  23   0.0000       0.078451         2.1348
  24   0.0000       0.089376         2.4320
  25   0.0000       0.099832         2.7166

MULLIKEN ATOMIC CHARGES
-----------------------
   0 C :    0.102353
   1 C :   -0.169840
   2 H :   -0.018395
   3 H :   -0.011170
   4 H :    0.017333
   5 C :    0.095707
   6 H :   -0.019326
   7 H :    0.018768
   8 H :   -0.009544
   9 C :    0.111447
  10 H :    0.019786
  11 H :   -0.000891
  12 H :   -0.006450
  13 O :   -0.236353
  14 H :    0.106575
Sum of atomic charges:   -0.0000000

LOEWDIN ATOMIC CHARGES
----------------------
   0 C :   -0.060448
   1 C :   -0.059281
   2 H :    0.012111
   3 H :    0.018886
   4 H :    0.033015
   5 C :   -0.061707
   6 H :    0.012100
   7 H :    0.032981
   8 H :    0.019119
   9 C :   -0.040415
  10 H :    0.033998
  11 H :    0.022666
  12 H :    0.020162
  13 O :   -0.005942
  14 H :    0.022755

  Mayer bond orders larger than 0.1
B(  0-C ,  1-C ) :   1.0544 B(  0-C ,  2-H ) :   0.9520 B(  0-C ,  3-H ) :   0.9525
B(  0-C ,  4-H ) :   0.9511 B(  1-C ,  5-C ) :   1.0528 B(  1-C ,  9-C ) :   1.0558
B(  1-C , 13-O ) :   0.9737 B(  5-C ,  6-H ) :   0.9502 B(  5-C ,  7-H ) :   0.9532
B(  5-C ,  8-H ) :   0.9527 B(  9-C , 10-H ) :   0.9533 B(  9-C , 11-H ) :   0.9576
B(  9-C , 12-H ) :   0.9586 B( 13-O , 14-H ) :   1.0238

FINAL SINGLE POINT ENERGY      -233.552132719705

DIPOLE MOMENT
-------------
                                X             Y             Z
Electronic contribution:     -2.47958       1.22886      -1.29199
Nuclear contribution   :      2.58376      -1.26136       1.75126
                        -----------------------------------------
Total Dipole Moment    :      0.10418      -0.03250       0.45927
                        -----------------------------------------
Magnitude (a.u.)       :      0.47206
Magnitude (Debye)      :      1.19988

CHEMICAL SHIELDING SUMMARY (ppm)
--------------------------

  Nucleus  Element    Isotropic     Anisotropy
  -------  -------  ------------   ------------
      0       C          159.514         55.604
      1       C          123.649         60.176
      2       H           30.302          7.910
      3       H           29.920          8.647
      4       H           29.434          6.098
      5       C          159.281         57.648
      6       H           30.256          7.947
      7       H           29.408          6.014
      8       H           29.980          8.510
      9       C          160.927         42.366
     10       H           30.121          7.063
     11       H           30.126          7.557
     12       H           30.291          7.676
     13       O          207.471         76.841
     14       H           31.546         10.895

                             ****ORCA TERMINATED NORMALLY****
TOTAL RUN TIME: 0 days 0 hours 0 minutes 40 seconds 53 msec
