                         Program Version 4.0.0.2 - RELEASE -
|  1> !cc-pvdz OLYP NMR
|  2>
|  3> *xyzfile 0 1 guess.xyz
|  4>
|  5>
|  6>                          ****END OF INPUT****

CARTESIAN COORDINATES (ANGSTROEM)
---------------------------------
  C     -4.942800    4.814740   -0.045420
  C     -5.903350    3.947980    0.298960
  H     -4.970490    5.841600    0.305710
  H     -4.110270    4.525380   -0.681470
  C     -5.904300    2.595700   -0.139080
  H     -6.723290    4.262630    0.935010
  N     -5.909270    1.491710   -0.493960

 Total Charge           Charge          ....    0
 Multiplicity           Mult            ....    1
 Number of Electrons    NEL             ....   28
 Basis Dimension        Dim             ....   71

ORBITAL ENERGIES
----------------

  NO   OCC          E(Eh)            E(eV)
   0   2.0000     -14.010543      -381.2463
   1   2.0000      -9.968611      -271.2597
   2   2.0000      -9.954475      -270.8750
   3   2.0000      -9.950620      -270.7701
   4   2.0000      -0.830967       -22.6118
   5   2.0000      -0.745778       -20.2937
   6   2.0000      -0.596039       -16.2190
   7   2.0000      -0.483421       -13.1546
   8   2.0000      -0.426223       -11.5981
   9   2.0000      -0.364938        -9.9305
  10   2.0000      -0.336089        -9.1455
  11   2.0000      -0.305714        -8.3189
  12   2.0000      -0.292624        -7.9627
  13   2.0000      -0.254469        -6.9245
  14   0.0000      -0.083409        -2.2697
  15   0.0000      -0.005748        -0.1564
  16   0.0000       0.056655         1.5417
  17   0.0000       0.060961         1.6588
  18   0.0000       0.077942         2.1209

MULLIKEN ATOMIC CHARGES
-----------------------
   0 C :    0.124949
   1 C :   -0.038056
   2 H :    0.020702
   3 H :    0.019597
   4 C :   -0.001608
   5 H :    0.010757
   6 N :   -0.136341
Sum of atomic charges:   -0.0000000

LOEWDIN ATOMIC CHARGES
----------------------
   0 C :    0.032743
   1 C :   -0.068634
   2 H :    0.030730
   3 H :    0.032299
   4 C :   -0.085601
   5 H :    0.046430
   6 N :    0.012034

  Mayer bond orders larger than 0.1
B(  0-C ,  1-C ) :   1.9545 B(  0-C ,  2-H ) :   0.9360 B(  0-C ,  3-H ) :   0.9395
B(  0-C ,  6-N ) :   0.1111 B(  1-C ,  4-C ) :   1.0963 B(  1-C ,  5-H ) :   0.9346
B(  4-C ,  6-N ) :   3.0954

FINAL SINGLE POINT ENERGY      -170.791937366408

DIPOLE MOMENT
-------------
                                X             Y             Z
Electronic contribution:     -0.95583      -3.23628      -0.42531
Nuclear contribution   :      1.07791       4.58903       0.78663
                        -----------------------------------------
Total Dipole Moment    :      0.12208       1.35275       0.36132
                        -----------------------------------------
Magnitude (a.u.)       :      1.40549
Magnitude (Debye)      :      3.57247

CHEMICAL SHIELDING SUMMARY (ppm)
--------------------------

  Nucleus  Element    Isotropic     Anisotropy
  -------  -------  ------------   ------------
      0       C           61.860        169.307
      1       C           88.186        124.229
      2       H           25.538          4.494
      3       H           25.327          5.493
      4       C           85.273        298.139
      5       H           26.049          3.513
      6       N          -16.599        376.184

                             ****ORCA TERMINATED NORMALLY****
TOTAL RUN TIME: 0 days 0 hours 0 minutes 9 seconds 212 msec
