                         Program Version 4.0.0.2 - RELEASE -
|  1> !aug-cc-pVDZ B3LYP NMR
|  2>
|  3> *xyzfile 0 1 guess.xyz
|  4>
|  5>
|  6>                          ****END OF INPUT****

CARTESIAN COORDINATES (ANGSTROEM)
---------------------------------
  C    -14.989850    2.613290    8.077050
  C    -13.963020    1.894520    7.469080
  C    -12.811860    2.555300    7.048170
  C    -12.688600    3.934310    7.235610
  C    -13.714690    4.672510    7.846690
  C    -14.864070    3.989090    8.262770
  O    -15.919760    4.611330    8.867100
  H    -15.729630    5.558150    8.946810
  H    -15.890390    2.103150    8.407520
  H    -14.062030    0.822290    7.324800
  H    -12.008540    1.997840    6.573400
  H    -11.780110    4.429160    6.898660
  C    -13.547560    6.152260    8.031370
  H    -12.584890    6.502190    7.643760
  H    -13.587920    6.408180    9.094990
  H    -14.335070    6.692110    7.495820

 Total Charge           Charge          ....    0
 Multiplicity           Mult            ....    1
 Number of Electrons    NEL             ....   58
 Basis Dimension        Dim             ....  256

ORBITAL ENERGIES
----------------

  NO   OCC          E(Eh)            E(eV)
   0   2.0000     -19.180932      -521.9397
   1   2.0000     -10.244582      -278.7692
   2   2.0000     -10.195183      -277.4250
   3   2.0000     -10.193923      -277.3908
   4   2.0000     -10.186676      -277.1935
   5   2.0000     -10.184962      -277.1469
   6   2.0000     -10.180623      -277.0288
   7   2.0000     -10.178462      -276.9700
   8   2.0000      -1.067902       -29.0591
   9   2.0000      -0.854974       -23.2650
  10   2.0000      -0.780129       -21.2284
  11   2.0000      -0.740902       -20.1610
  12   2.0000      -0.694505       -18.8984
  13   2.0000      -0.609798       -16.5934
  14   2.0000      -0.605021       -16.4635
  15   2.0000      -0.539321       -14.6757
  16   2.0000      -0.494919       -13.4674
  17   2.0000      -0.466292       -12.6884
  18   2.0000      -0.442849       -12.0505
  19   2.0000      -0.437712       -11.9108
  20   2.0000      -0.413409       -11.2494
  21   2.0000      -0.402052       -10.9404
  22   2.0000      -0.398321       -10.8389
  23   2.0000      -0.390824       -10.6349
  24   2.0000      -0.351593        -9.5673
  25   2.0000      -0.340835        -9.2746
  26   2.0000      -0.337136        -9.1739
  27   2.0000      -0.248982        -6.7751
  28   2.0000      -0.224704        -6.1145
  29   0.0000      -0.015357        -0.4179
  30   0.0000      -0.012603        -0.3429
  31   0.0000       0.000565         0.0154
  32   0.0000       0.001839         0.0500
  33   0.0000       0.009021         0.2455

MULLIKEN ATOMIC CHARGES
-----------------------
   0 C :    0.752058
   1 C :    0.610841
   2 C :    0.316517
   3 C :    1.228348
   4 C :    0.784841
   5 C :    0.159757
   6 O :   -0.571057
   7 H :    0.089666
   8 H :   -0.868656
   9 H :   -0.738290
  10 H :   -0.806173
  11 H :   -0.975317
  12 C :    0.633276
  13 H :   -0.536977
  14 H :   -0.059397
  15 H :   -0.019437
Sum of atomic charges:    0.0000000

LOEWDIN ATOMIC CHARGES
----------------------
   0 C :   -0.169233
   1 C :   -0.266973
   2 C :   -0.259363
   3 C :   -0.208812
   4 C :   -0.877149
   5 C :   -0.778906
   6 O :    0.564914
   7 H :    0.150423
   8 H :    0.304736
   9 H :    0.295486
  10 H :    0.294534
  11 H :    0.308427
  12 C :   -0.246010
  13 H :    0.279692
  14 H :    0.303727
  15 H :    0.304508

  Mayer bond orders larger than 0.1
B(  0-C ,  1-C ) :   1.6747 B(  0-C ,  3-C ) :   0.1156 B(  0-C ,  4-C ) :  -0.8047
B(  0-C ,  5-C ) :   1.2447 B(  0-C ,  8-H ) :  -1.3937 B(  0-C ,  9-H ) :   0.3249
B(  0-C , 11-H ) :   0.1358 B(  0-C , 12-C ) :   0.3509 B(  1-C ,  2-C ) :   1.6434
B(  1-C ,  3-C ) :  -0.4711 B(  1-C ,  4-C ) :   0.5086 B(  1-C ,  5-C ) :  -0.4049
B(  1-C ,  8-H ) :   0.2788 B(  1-C ,  9-H ) :  -0.2906 B(  1-C , 10-H ) :   0.3653
B(  1-C , 11-H ) :  -0.1919 B(  2-C ,  3-C ) :   1.0231 B(  2-C ,  5-C ) :  -0.1350
B(  2-C ,  8-H ) :  -0.1589 B(  2-C ,  9-H ) :   0.3472 B(  2-C , 10-H ) :  -0.4161
B(  2-C , 11-H ) :   0.5702 B(  2-C , 12-C ) :   0.5461 B(  3-C ,  5-C ) :  -0.2621
B(  3-C , 10-H ) :   0.2772 B(  3-C , 11-H ) :  -1.3402 B(  3-C , 12-C ) :  -0.5798
B(  4-C ,  5-C ) :  -0.3853 B(  4-C ,  6-O ) :   0.2905 B(  4-C ,  8-H ) :  -0.1042
B(  4-C , 11-H ) :   0.7096 B(  4-C , 12-C ) :   1.4197 B(  4-C , 13-H ) :   0.3361
B(  4-C , 14-H ) :   0.3248 B(  4-C , 15-H ) :   0.3373 B(  5-C ,  6-O ) :   0.2354
B(  5-C ,  8-H ) :   1.4071 B(  5-C , 11-H ) :  -0.1555 B(  5-C , 12-C ) :  -0.5194
B(  6-O ,  7-H ) :   0.9960 B( 11-H , 12-C ) :   0.1074 B( 12-C , 13-H ) :   0.4806
B( 12-C , 14-H ) :   0.6961 B( 12-C , 15-H ) :   0.6914 B( 14-H , 15-H ) :  -0.1481

FINAL SINGLE POINT ENERGY      -346.617149390201

DIPOLE MOMENT
-------------
                                X             Y             Z
Electronic contribution:     -2.35963      -2.74697       0.61835
Nuclear contribution   :      2.67591       3.33858      -0.65823
                        -----------------------------------------
Total Dipole Moment    :      0.31627       0.59161      -0.03988
                        -----------------------------------------
Magnitude (a.u.)       :      0.67203
Magnitude (Debye)      :      1.70816

CHEMICAL SHIELDING SUMMARY (ppm)
--------------------------

  Nucleus  Element    Isotropic     Anisotropy
  -------  -------  ------------   ------------
      0       C           78.126        140.482
      1       C           65.027        168.074
      2       C           72.900        160.332
      3       C           61.808        144.588
      4       C           71.830        148.209
      5       C           39.003        128.769
      6       O          226.418         57.454
      7       H           27.541         12.003
      8       H           24.502          5.569
      9       H           24.279          4.522
     10       H           24.661          4.513
     11       H           24.292          6.671
     12       C          175.189         28.476
     13       H           29.284          7.347
     14       H           29.431          8.266
     15       H           29.403          8.222

                             ****ORCA TERMINATED NORMALLY****
TOTAL RUN TIME: 0 days 0 hours 15 minutes 58 seconds 946 msec
