                         Program Version 4.0.0.2 - RELEASE -
|  1> !cc-pvdz BP86 NMR
|  2>
|  3> *xyzfile 0 1 guess.xyz
|  4>
|  5>
|  6>                          ****END OF INPUT****

CARTESIAN COORDINATES (ANGSTROEM)
---------------------------------
  C     -5.186560    2.223200    3.820790
  C     -4.792690    3.653860    4.079970
  O     -4.919080    2.703800    5.144860
  H     -5.554350    4.419510    4.001630
  H     -3.793280    3.983320    3.824590
  C     -4.203470    1.217920    3.334220
  H     -6.212280    1.981030    3.577380
  H     -3.208040    1.653040    3.199280
  H     -4.526200    0.810590    2.371170
  H     -4.122550    0.387850    4.042930

 Total Charge           Charge          ....    0
 Multiplicity           Mult            ....    1
 Number of Electrons    NEL             ....   32
 Basis Dimension        Dim             ....   86

ORBITAL ENERGIES
----------------

  NO   OCC          E(Eh)            E(eV)
   0   2.0000     -18.791407      -511.3402
   1   2.0000      -9.962341      -271.0891
   2   2.0000      -9.957656      -270.9616
   3   2.0000      -9.907558      -269.5984
   4   2.0000      -0.981782       -26.7156
   5   2.0000      -0.678699       -18.4683
   6   2.0000      -0.593810       -16.1584
   7   2.0000      -0.535383       -14.5685
   8   2.0000      -0.450519       -12.2592
   9   2.0000      -0.418228       -11.3806
  10   2.0000      -0.384693       -10.4680
  11   2.0000      -0.356314        -9.6958
  12   2.0000      -0.332228        -9.0404
  13   2.0000      -0.324580        -8.8323
  14   2.0000      -0.254379        -6.9220
  15   2.0000      -0.216104        -5.8805
  16   0.0000       0.050084         1.3628
  17   0.0000       0.055867         1.5202
  18   0.0000       0.075516         2.0549
  19   0.0000       0.080024         2.1776
  20   0.0000       0.092907         2.5281

MULLIKEN ATOMIC CHARGES
-----------------------
   0 C :   -0.055493
   1 C :    0.115504
   2 O :   -0.250623
   3 H :    0.035535
   4 H :    0.029014
   5 C :    0.016241
   6 H :    0.005896
   7 H :    0.026850
   8 H :    0.027049
   9 H :    0.050027
Sum of atomic charges:    0.0000000

LOEWDIN ATOMIC CHARGES
----------------------
   0 C :   -0.040461
   1 C :   -0.016282
   2 O :   -0.012703
   3 H :    0.014091
   4 H :    0.012173
   5 C :   -0.079753
   6 H :    0.014138
   7 H :    0.033819
   8 H :    0.034902
   9 H :    0.040077

  Mayer bond orders larger than 0.1
B(  0-C ,  1-C ) :   1.0545 B(  0-C ,  2-O ) :   0.9931 B(  0-C ,  5-C ) :   1.1117
B(  0-C ,  6-H ) :   0.9560 B(  1-C ,  2-O ) :   1.0451 B(  1-C ,  3-H ) :   0.9464
B(  1-C ,  4-H ) :   0.9403 B(  5-C ,  7-H ) :   0.9548 B(  5-C ,  8-H ) :   0.9505
B(  5-C ,  9-H ) :   0.9507

FINAL SINGLE POINT ENERGY      -193.112513026345

DIPOLE MOMENT
-------------
                                X             Y             Z
Electronic contribution:     -1.09698       1.36276       2.71736
Nuclear contribution   :      1.09206      -1.32382      -3.37647
                        -----------------------------------------
Total Dipole Moment    :     -0.00493       0.03894      -0.65911
                        -----------------------------------------
Magnitude (a.u.)       :      0.66028
Magnitude (Debye)      :      1.67829

CHEMICAL SHIELDING SUMMARY (ppm)
--------------------------

  Nucleus  Element    Isotropic     Anisotropy
  -------  -------  ------------   ------------
      0       C          144.425         64.506
      1       C          142.871         52.606
      2       O          289.959        151.817
      3       H           29.118         11.029
      4       H           29.498          9.137
      5       C          174.724         34.197
      6       H           28.960         11.584
      7       H           30.791          9.012
      8       H           30.260          8.912
      9       H           29.955          8.281

                             ****ORCA TERMINATED NORMALLY****
TOTAL RUN TIME: 0 days 0 hours 0 minutes 16 seconds 863 msec
