                         Program Version 4.0.0.2 - RELEASE -
|  1> !cc-pvdz OLYP NMR
|  2>
|  3> *xyzfile 0 1 guess.xyz
|  4>
|  5>
|  6>                          ****END OF INPUT****

CARTESIAN COORDINATES (ANGSTROEM)
---------------------------------
  C    -15.044710    2.469670    8.080800
  C    -14.004600    1.774380    7.467310
  C    -12.858460    2.455660    7.052210
  C    -12.739200    3.837100    7.257160
  C    -13.795980    4.532070    7.861000
  C    -14.934340    3.841410    8.271280
  O    -15.977960    4.484920    8.869120
  C    -11.521610    4.570600    6.777640
  H    -11.329870    5.455410    7.393710
  H    -11.659940    4.886200    5.739000
  H    -10.633030    3.933590    6.839700
  H    -15.758100    5.427990    8.938950
  H    -15.938870    1.945550    8.404990
  H    -14.087910    0.702450    7.309810
  H    -12.057660    1.901070    6.567900
  H    -13.719660    5.605540    8.005470

 Total Charge           Charge          ....    0
 Multiplicity           Mult            ....    1
 Number of Electrons    NEL             ....   58
 Basis Dimension        Dim             ....  152

ORBITAL ENERGIES
----------------

  NO   OCC          E(Eh)            E(eV)
   0   2.0000     -18.798338      -511.5288
   1   2.0000      -9.963916      -271.1319
   2   2.0000      -9.919189      -269.9148
   3   2.0000      -9.909815      -269.6598
   4   2.0000      -9.909638      -269.6550
   5   2.0000      -9.905290      -269.5366
   6   2.0000      -9.900799      -269.4144
   7   2.0000      -9.898913      -269.3631
   8   2.0000      -0.973089       -26.4791
   9   2.0000      -0.773384       -21.0448
  10   2.0000      -0.697846       -18.9894
  11   2.0000      -0.664346       -18.0778
  12   2.0000      -0.619324       -16.8527
  13   2.0000      -0.555377       -15.1126
  14   2.0000      -0.519169       -14.1273
  15   2.0000      -0.477352       -12.9894
  16   2.0000      -0.436568       -11.8796
  17   2.0000      -0.410028       -11.1574
  18   2.0000      -0.375679       -10.2227
  19   2.0000      -0.372314       -10.1312
  20   2.0000      -0.354825        -9.6553
  21   2.0000      -0.346448        -9.4273
  22   2.0000      -0.345100        -9.3907
  23   2.0000      -0.321269        -8.7422
  24   2.0000      -0.298958        -8.1351
  25   2.0000      -0.284390        -7.7386
  26   2.0000      -0.275948        -7.5089
  27   2.0000      -0.209573        -5.7028
  28   2.0000      -0.182597        -4.9687
  29   0.0000      -0.023411        -0.6370
  30   0.0000      -0.007308        -0.1989
  31   0.0000       0.023810         0.6479
  32   0.0000       0.047751         1.2994
  33   0.0000       0.064692         1.7604

MULLIKEN ATOMIC CHARGES
-----------------------
   0 C :    0.063626
   1 C :    0.075756
   2 C :    0.037205
   3 C :   -0.133524
   4 C :    0.032633
   5 C :    0.070366
   6 O :   -0.165485
   7 C :    0.112715
   8 H :    0.006033
   9 H :    0.030530
  10 H :    0.012480
  11 H :    0.122136
  12 H :   -0.056732
  13 H :   -0.053816
  14 H :   -0.077924
  15 H :   -0.076001
Sum of atomic charges:   -0.0000000

LOEWDIN ATOMIC CHARGES
----------------------
   0 C :   -0.044813
   1 C :   -0.015319
   2 C :   -0.046061
   3 C :   -0.030707
   4 C :   -0.067728
   5 C :   -0.057397
   6 O :    0.082189
   7 C :   -0.041473
   8 H :    0.027795
   9 H :    0.035834
  10 H :    0.030817
  11 H :    0.053642
  12 H :    0.021421
  13 H :    0.022744
  14 H :    0.016156
  15 H :    0.012899

  Mayer bond orders larger than 0.1
B(  0-C ,  1-C ) :   1.4630 B(  0-C ,  5-C ) :   1.3759 B(  0-C , 12-H ) :   0.9241
B(  1-C ,  2-C ) :   1.4321 B(  1-C , 13-H ) :   0.9332 B(  2-C ,  3-C ) :   1.4248
B(  2-C , 14-H ) :   0.9308 B(  3-C ,  4-C ) :   1.4200 B(  3-C ,  7-C ) :   1.1096
B(  4-C ,  5-C ) :   1.3322 B(  4-C , 15-H ) :   0.9185 B(  5-C ,  6-O ) :   1.1896
B(  6-O , 11-H ) :   1.0064 B(  7-C ,  8-H ) :   0.9485 B(  7-C ,  9-H ) :   0.9412
B(  7-C , 10-H ) :   0.9488

FINAL SINGLE POINT ENERGY      -346.687721052323

DIPOLE MOMENT
-------------
                                X             Y             Z
Electronic contribution:     -5.22968      -0.83732       2.36866
Nuclear contribution   :      5.49710       1.38269      -2.42124
                        -----------------------------------------
Total Dipole Moment    :      0.26742       0.54538      -0.05259
                        -----------------------------------------
Magnitude (a.u.)       :      0.60968
Magnitude (Debye)      :      1.54969

CHEMICAL SHIELDING SUMMARY (ppm)
--------------------------

  Nucleus  Element    Isotropic     Anisotropy
  -------  -------  ------------   ------------
      0       C           87.953        131.410
      1       C           68.549        160.085
      2       C           77.968        138.482
      3       C           58.879        171.978
      4       C           84.962        100.022
      5       C           44.889        124.711
      6       O          209.041         61.793
      7       C          169.698         37.297
      8       H           29.600          6.987
      9       H           29.032          8.295
     10       H           29.405          7.385
     11       H           28.202         11.085
     12       H           25.106          4.468
     13       H           24.466          4.228
     14       H           24.933          5.732
     15       H           25.427          6.879

                             ****ORCA TERMINATED NORMALLY****
TOTAL RUN TIME: 0 days 0 hours 1 minutes 10 seconds 217 msec
