                         Program Version 4.0.0.2 - RELEASE -
|  1> !aug-cc-pVDZ B3LYP NMR
|  2>
|  3> *xyzfile 0 1 guess.xyz
|  4>
|  5>
|  6>                          ****END OF INPUT****

CARTESIAN COORDINATES (ANGSTROEM)
---------------------------------
  C     -9.193100    5.490760    5.303500
  C    -10.201150    4.432020    5.643920
  H     -9.262540    6.357860    5.992160
  H     -9.363890    5.859730    4.288040
  H     -8.191010    5.084200    5.410140
  O    -11.242190    4.752200    6.254110
  O     -9.994630    3.151940    5.260310
  H     -9.398250    2.499910    4.809160

 Total Charge           Charge          ....    0
 Multiplicity           Mult            ....    1
 Number of Electrons    NEL             ....   32
 Basis Dimension        Dim             ....  128

ORBITAL ENERGIES
----------------

  NO   OCC          E(Eh)            E(eV)
   0   2.0000     -19.195663      -522.3406
   1   2.0000     -19.136387      -520.7276
   2   2.0000     -10.339947      -281.3643
   3   2.0000     -10.205837      -277.7150
   4   2.0000      -1.091916       -29.7125
   5   2.0000      -1.007833       -27.4245
   6   2.0000      -0.760004       -20.6808
   7   2.0000      -0.666156       -18.1270
   8   2.0000      -0.510381       -13.8882
   9   2.0000      -0.472500       -12.8574
  10   2.0000      -0.459773       -12.5111
  11   2.0000      -0.412334       -11.2202
  12   2.0000      -0.400122       -10.8879
  13   2.0000      -0.349139        -9.5005
  14   2.0000      -0.319463        -8.6930
  15   2.0000      -0.277599        -7.5539
  16   0.0000      -0.032578        -0.8865
  17   0.0000      -0.016038        -0.4364
  18   0.0000       0.000800         0.0218
  19   0.0000       0.023562         0.6412
  20   0.0000       0.030936         0.8418

MULLIKEN ATOMIC CHARGES
-----------------------
   0 C :    0.733363
   1 C :    0.730576
   2 H :   -0.157939
   3 H :   -0.174693
   4 H :   -0.256053
   5 O :   -0.521241
   6 O :   -0.495581
   7 H :    0.141568
Sum of atomic charges:    0.0000000

LOEWDIN ATOMIC CHARGES
----------------------
   0 C :   -0.507560
   1 C :   -1.219333
   2 H :    0.270083
   3 H :    0.257607
   4 H :    0.235810
   5 O :    0.395036
   6 O :    0.389792
   7 H :    0.178566

  Mayer bond orders larger than 0.1
B(  0-C ,  1-C ) :   0.9837 B(  0-C ,  2-H ) :   0.8906 B(  0-C ,  3-H ) :   0.8894
B(  0-C ,  4-H ) :   0.8702 B(  1-C ,  5-O ) :   1.6589 B(  1-C ,  6-O ) :   0.5950
B(  3-H ,  4-H ) :  -0.1105 B(  6-O ,  7-H ) :   1.0258

FINAL SINGLE POINT ENERGY      -228.967689306357

DIPOLE MOMENT
-------------
                                X             Y             Z
Electronic contribution:     -2.59230      -2.21772       0.93270
Nuclear contribution   :      4.07987       1.96591      -1.78345
                        -----------------------------------------
Total Dipole Moment    :      1.48757      -0.25181      -0.85075
                        -----------------------------------------
Magnitude (a.u.)       :      1.73206
Magnitude (Debye)      :      4.40255

CHEMICAL SHIELDING SUMMARY (ppm)
--------------------------

  Nucleus  Element    Isotropic     Anisotropy
  -------  -------  ------------   ------------
      0       C          168.810         42.278
      1       C           20.781       -138.843
      2       H           28.811          6.155
      3       H           29.316          5.719
      4       H           30.054          6.176
      5       O         -138.331       -484.947
      6       O          160.649        121.745
      7       H           22.375         12.100

                             ****ORCA TERMINATED NORMALLY****
TOTAL RUN TIME: 0 days 0 hours 1 minutes 16 seconds 237 msec
