                         Program Version 4.0.0.2 - RELEASE -
|  1> !aug-cc-pVDZ B3LYP NMR
|  2>
|  3> *xyzfile 0 1 guess.xyz
|  4>
|  5>
|  6>                          ****END OF INPUT****

CARTESIAN COORDINATES (ANGSTROEM)
---------------------------------
  C    -16.099780    3.119650    8.933150
  C    -15.552520    4.506190    8.923140
  H    -15.461950    2.410220    9.472710
  H    -16.222930    2.699550    7.928370
  H    -17.086290    3.045960    9.405450
  N    -15.124780    5.583490    8.914060

 Total Charge           Charge          ....    0
 Multiplicity           Mult            ....    1
 Number of Electrons    NEL             ....   22
 Basis Dimension        Dim             ....   96

ORBITAL ENERGIES
----------------

  NO   OCC          E(Eh)            E(eV)
   0   2.0000     -14.339589      -390.2000
   1   2.0000     -10.245158      -278.7849
   2   2.0000     -10.238301      -278.5983
   3   2.0000      -0.914264       -24.8784
   4   2.0000      -0.775586       -21.1048
   5   2.0000      -0.527588       -14.3564
   6   2.0000      -0.459600       -12.5064
   7   2.0000      -0.459503       -12.5037
   8   2.0000      -0.369876       -10.0648
   9   2.0000      -0.337228        -9.1764
  10   2.0000      -0.337191        -9.1754
  11   0.0000      -0.020908        -0.5689
  12   0.0000       0.010763         0.2929
  13   0.0000       0.010920         0.2971
  14   0.0000       0.029444         0.8012
  15   0.0000       0.029861         0.8126

MULLIKEN ATOMIC CHARGES
-----------------------
   0 C :    0.892998
   1 C :   -0.118598
   2 H :   -0.195179
   3 H :   -0.194119
   4 H :   -0.213630
   5 N :   -0.171471
Sum of atomic charges:   -0.0000000

LOEWDIN ATOMIC CHARGES
----------------------
   0 C :   -0.509266
   1 C :   -0.335743
   2 H :    0.247414
   3 H :    0.247654
   4 H :    0.246908
   5 N :    0.103034

  Mayer bond orders larger than 0.1
B(  0-C ,  1-C ) :   0.8958 B(  0-C ,  2-H ) :   0.8815 B(  0-C ,  3-H ) :   0.8754
B(  0-C ,  4-H ) :   0.8747 B(  1-C ,  5-N ) :   2.7279

FINAL SINGLE POINT ENERGY      -132.688049072157

DIPOLE MOMENT
-------------
                                X             Y             Z
Electronic contribution:      1.20165       3.05263      -0.02092
Nuclear contribution   :     -1.79427      -4.54659       0.03267
                        -----------------------------------------
Total Dipole Moment    :     -0.59262      -1.49395       0.01176
                        -----------------------------------------
Magnitude (a.u.)       :      1.60724
Magnitude (Debye)      :      4.08529

CHEMICAL SHIELDING SUMMARY (ppm)
--------------------------

  Nucleus  Element    Isotropic     Anisotropy
  -------  -------  ------------   ------------
      0       C          188.175         25.973
      1       C           81.811        310.170
      2       H           29.802          9.186
      3       H           29.803          9.268
      4       H           29.866          9.168
      5       N           -4.422        481.540

                             ****ORCA TERMINATED NORMALLY****
TOTAL RUN TIME: 0 days 0 hours 0 minutes 39 seconds 651 msec
