                         Program Version 4.0.0.2 - RELEASE -
|  1> !cc-pvdz BP86 NMR
|  2>
|  3> *xyzfile 0 1 guess.xyz
|  4>
|  5>
|  6>                          ****END OF INPUT****

CARTESIAN COORDINATES (ANGSTROEM)
---------------------------------
  C    -19.489940    2.338740   10.545380
  C    -18.250820    2.310330    9.903550
  C    -17.510240    3.484990    9.764500
  C    -18.006500    4.688960   10.266290
  C    -19.245430    4.719270   10.908420
  C    -19.982230    3.543570   11.045310
  H    -20.064060    1.422520   10.652030
  H    -19.629000    5.658190   11.297980
  H    -17.428450    5.603180   10.157220
  H    -16.544910    3.462110    9.264330
  H    -17.862920    1.373220    9.512140
  Cl   -21.509870    3.579770   11.836840

 Total Charge           Charge          ....    0
 Multiplicity           Mult            ....    1
 Number of Electrons    NEL             ....   58
 Basis Dimension        Dim             ....  127

ORBITAL ENERGIES
----------------

  NO   OCC          E(Eh)            E(eV)
   0   2.0000    -100.739886     -2741.2717
   1   2.0000      -9.975135      -271.4372
   2   2.0000      -9.928977      -270.1812
   3   2.0000      -9.928775      -270.1757
   4   2.0000      -9.928464      -270.1672
   5   2.0000      -9.928403      -270.1656
   6   2.0000      -9.924160      -270.0501
   7   2.0000      -9.190095      -250.0752
   8   2.0000      -7.014356      -190.8703
   9   2.0000      -7.003633      -190.5785
  10   2.0000      -7.002975      -190.5606
  11   2.0000      -0.823528       -22.4093
  12   2.0000      -0.768987       -20.9252
  13   2.0000      -0.692123       -18.8336
  14   2.0000      -0.669013       -18.2048
  15   2.0000      -0.563183       -15.3250
  16   2.0000      -0.546303       -14.8657
  17   2.0000      -0.477678       -12.9983
  18   2.0000      -0.423555       -11.5255
  19   2.0000      -0.423172       -11.5151
  20   2.0000      -0.391632       -10.6568
  21   2.0000      -0.387902       -10.5553
  22   2.0000      -0.360567        -9.8115
  23   2.0000      -0.323345        -8.7987
  24   2.0000      -0.320324        -8.7165
  25   2.0000      -0.301330        -8.1996
  26   2.0000      -0.274333        -7.4650
  27   2.0000      -0.241556        -6.5731
  28   2.0000      -0.222113        -6.0440
  29   0.0000      -0.050337        -1.3697
  30   0.0000      -0.048012        -1.3065
  31   0.0000       0.003300         0.0898
  32   0.0000       0.055492         1.5100
  33   0.0000       0.075383         2.0513

MULLIKEN ATOMIC CHARGES
-----------------------
   0 C :    0.103412
   1 C :    0.024144
   2 C :    0.022742
   3 C :    0.020764
   4 C :    0.109571
   5 C :   -0.148054
   6 H :   -0.011599
   7 H :   -0.015067
   8 H :   -0.009393
   9 H :   -0.015833
  10 H :   -0.011886
  11 Cl:   -0.068800
Sum of atomic charges:   -0.0000000

LOEWDIN ATOMIC CHARGES
----------------------
   0 C :   -0.037301
   1 C :   -0.021494
   2 C :   -0.030255
   3 C :   -0.022218
   4 C :   -0.036120
   5 C :   -0.162397
   6 H :    0.032641
   7 H :    0.032341
   8 H :    0.033480
   9 H :    0.031093
  10 H :    0.033245
  11 Cl:    0.146985

  Mayer bond orders larger than 0.1
B(  0-C ,  1-C ) :   1.4611 B(  0-C ,  5-C ) :   1.3929 B(  0-C ,  6-H ) :   0.9317
B(  1-C ,  2-C ) :   1.4542 B(  1-C , 10-H ) :   0.9343 B(  2-C ,  3-C ) :   1.4504
B(  2-C ,  9-H ) :   0.9386 B(  3-C ,  4-C ) :   1.4597 B(  3-C ,  8-H ) :   0.9355
B(  4-C ,  5-C ) :   1.3939 B(  4-C ,  7-H ) :   0.9312 B(  5-C , 11-Cl) :   1.0475

FINAL SINGLE POINT ENERGY      -691.907948180028

DIPOLE MOMENT
-------------
                                X             Y             Z
Electronic contribution:     -8.09534       0.19202       4.19622
Nuclear contribution   :      8.62674      -0.20443      -4.46979
                        -----------------------------------------
Total Dipole Moment    :      0.53140      -0.01241      -0.27357
                        -----------------------------------------
Magnitude (a.u.)       :      0.59782
Magnitude (Debye)      :      1.51953

CHEMICAL SHIELDING SUMMARY (ppm)
--------------------------

  Nucleus  Element    Isotropic     Anisotropy
  -------  -------  ------------   ------------
      0       C           67.997        143.698
      1       C           66.808        163.372
      2       C           70.579        168.708
      3       C           66.923        163.340
      4       C           67.838        143.914
      5       C           54.488        110.786
      6       H           24.308          7.271
      7       H           24.312          7.254
      8       H           24.211          4.663
      9       H           24.359          4.309
     10       H           24.222          4.646
     11       Cl         723.070        389.773

                             ****ORCA TERMINATED NORMALLY****
TOTAL RUN TIME: 0 days 0 hours 0 minutes 50 seconds 465 msec
