                         Program Version 4.0.0.2 - RELEASE -
|  1> !aug-cc-pVDZ B3LYP NMR
|  2>
|  3> *xyzfile 0 1 guess.xyz
|  4>
|  5>
|  6>                          ****END OF INPUT****

CARTESIAN COORDINATES (ANGSTROEM)
---------------------------------
  C     -5.855260    5.927550    0.121830
  C     -4.648140    4.989110    0.105650
  C     -6.976200    5.166380    0.123700
  H     -5.658460    6.992790    0.130930
  O     -8.356250    5.386040    0.137790
  C     -6.539750    3.719470    0.127870
  O     -5.119760    3.715010    0.067510
  O     -3.473780    5.245140    0.118960
  H     -8.863490    6.227590    0.150790
  H     -6.881780    3.130070   -0.725970
  H     -6.798910    3.189600    1.046600

 Total Charge           Charge          ....    0
 Multiplicity           Mult            ....    1
 Number of Electrons    NEL             ....   52
 Basis Dimension        Dim             ....  197

ORBITAL ENERGIES
----------------

  NO   OCC          E(Eh)            E(eV)
   0   2.0000     -19.218336      -522.9575
   1   2.0000     -19.197541      -522.3917
   2   2.0000     -19.132543      -520.6230
   3   2.0000     -10.318552      -280.7821
   4   2.0000     -10.302980      -280.3583
   5   2.0000     -10.269739      -279.4538
   6   2.0000     -10.215922      -277.9894
   7   2.0000      -1.119443       -30.4616
   8   2.0000      -1.079271       -29.3684
   9   2.0000      -1.033121       -28.1126
  10   2.0000      -0.823113       -22.3980
  11   2.0000      -0.746386       -20.3102
  12   2.0000      -0.655375       -17.8337
  13   2.0000      -0.585900       -15.9431
  14   2.0000      -0.556367       -15.1395
  15   2.0000      -0.515636       -14.0312
  16   2.0000      -0.508211       -13.8291
  17   2.0000      -0.452373       -12.3097
  18   2.0000      -0.426345       -11.6014
  19   2.0000      -0.421425       -11.4676
  20   2.0000      -0.406938       -11.0733
  21   2.0000      -0.401054       -10.9132
  22   2.0000      -0.372845       -10.1456
  23   2.0000      -0.308338        -8.3903
  24   2.0000      -0.280362        -7.6290
  25   2.0000      -0.275431        -7.4948
  26   0.0000      -0.042306        -1.1512
  27   0.0000      -0.035647        -0.9700
  28   0.0000      -0.001274        -0.0347
  29   0.0000       0.009735         0.2649
  30   0.0000       0.019597         0.5333

MULLIKEN ATOMIC CHARGES
-----------------------
   0 C :    1.195736
   1 C :    0.306178
   2 C :    0.176535
   3 H :   -0.587873
   4 O :   -0.606493
   5 C :    1.095778
   6 O :   -0.503065
   7 O :   -0.514773
   8 H :    0.133977
   9 H :   -0.344095
  10 H :   -0.351905
Sum of atomic charges:    0.0000000

LOEWDIN ATOMIC CHARGES
----------------------
   0 C :   -0.198244
   1 C :   -0.805071
   2 C :   -0.889707
   3 H :    0.243460
   4 O :    0.465428
   5 C :   -0.477563
   6 O :    0.434782
   7 O :    0.458587
   8 H :    0.178526
   9 H :    0.293225
  10 H :    0.296577

  Mayer bond orders larger than 0.1
B(  0-C ,  1-C ) :   0.7645 B(  0-C ,  2-C ) :   1.3797 B(  0-C ,  3-H ) :   0.1923
B(  0-C ,  7-O ) :  -0.1940 B(  1-C ,  6-O ) :   0.7728 B(  1-C ,  7-O ) :   1.7676
B(  2-C ,  3-H ) :   0.1969 B(  2-C ,  4-O ) :   0.3474 B(  2-C ,  5-C ) :   1.1579
B(  2-C ,  7-O ) :   0.1315 B(  2-C , 10-H ) :   0.1017 B(  4-O ,  8-H ) :   1.0768
B(  5-C ,  6-O ) :   0.8212 B(  5-C ,  9-H ) :   0.7179 B(  5-C , 10-H ) :   0.7154
B(  9-H , 10-H ) :  -0.2271

FINAL SINGLE POINT ENERGY      -380.339914171320

DIPOLE MOMENT
-------------
                                X             Y             Z
Electronic contribution:      2.28730       0.39295      -0.09288
Nuclear contribution   :     -4.39526       0.06331       0.13171
                        -----------------------------------------
Total Dipole Moment    :     -2.10797       0.45626       0.03882
                        -----------------------------------------
Magnitude (a.u.)       :      2.15713
Magnitude (Debye)      :      5.48298

CHEMICAL SHIELDING SUMMARY (ppm)
--------------------------

  Nucleus  Element    Isotropic     Anisotropy
  -------  -------  ------------   ------------
      0       C           91.517         86.853
      1       C           21.336         43.118
      2       C           18.163        110.552
      3       H           26.453          3.554
      4       O          218.049         91.803
      5       C          123.038         55.833
      6       O          131.420        198.150
      7       O          -39.816        460.470
      8       H           25.706         13.044
      9       H           26.941          5.777
     10       H           26.941          5.877

                             ****ORCA TERMINATED NORMALLY****
TOTAL RUN TIME: 0 days 0 hours 5 minutes 53 seconds 385 msec
