                         Program Version 4.0.0.2 - RELEASE -
|  1> !cc-pvdz OLYP NMR
|  2>
|  3> *xyzfile 0 1 guess.xyz
|  4>
|  5>
|  6>                          ****END OF INPUT****

CARTESIAN COORDINATES (ANGSTROEM)
---------------------------------
  C    -16.979860    2.292040    9.225100
  C    -15.907740    1.717900    8.558130
  C    -14.855330    2.542620    8.176570
  C    -14.874550    3.927780    8.459020
  C    -15.950060    4.532760    9.133800
  C    -16.994560    3.665290    9.502860
  O    -18.109760    4.108520   10.166330
  H    -17.996220    5.055150   10.293900
  H    -17.813240    1.665840    9.532540
  H    -14.021180    4.516920    8.133950
  H    -15.898280    0.651030    8.343350
  H    -14.012690    2.095370    7.653150
  N    -15.956810    5.898300    9.405930
  H    -15.185980    6.493290    9.124680
  H    -16.700820    6.383550    9.885870

 Total Charge           Charge          ....    0
 Multiplicity           Mult            ....    1
 Number of Electrons    NEL             ....   58
 Basis Dimension        Dim             ....  147

ORBITAL ENERGIES
----------------

  NO   OCC          E(Eh)            E(eV)
   0   2.0000     -18.794789      -511.4322
   1   2.0000     -14.028782      -381.7426
   2   2.0000      -9.954973      -270.8886
   3   2.0000      -9.950385      -270.7638
   4   2.0000      -9.901669      -269.4381
   5   2.0000      -9.895423      -269.2681
   6   2.0000      -9.894639      -269.2468
   7   2.0000      -9.891322      -269.1566
   8   2.0000      -0.971964       -26.4485
   9   2.0000      -0.838632       -22.8203
  10   2.0000      -0.751626       -20.4528
  11   2.0000      -0.658638       -17.9224
  12   2.0000      -0.651791       -17.7361
  13   2.0000      -0.552765       -15.0415
  14   2.0000      -0.537945       -14.6382
  15   2.0000      -0.499021       -13.5791
  16   2.0000      -0.462931       -12.5970
  17   2.0000      -0.433882       -11.8065
  18   2.0000      -0.404636       -11.0107
  19   2.0000      -0.380775       -10.3614
  20   2.0000      -0.363658        -9.8956
  21   2.0000      -0.353650        -9.6233
  22   2.0000      -0.327132        -8.9017
  23   2.0000      -0.302310        -8.2263
  24   2.0000      -0.287433        -7.8214
  25   2.0000      -0.285112        -7.7583
  26   2.0000      -0.259271        -7.0551
  27   2.0000      -0.185247        -5.0408
  28   2.0000      -0.153949        -4.1892
  29   0.0000      -0.008894        -0.2420
  30   0.0000      -0.008149        -0.2218
  31   0.0000       0.009311         0.2534
  32   0.0000       0.047727         1.2987
  33   0.0000       0.062203         1.6926

MULLIKEN ATOMIC CHARGES
-----------------------
   0 C :    0.069605
   1 C :    0.056345
   2 C :    0.049474
   3 C :    0.057214
   4 C :    0.008858
   5 C :    0.063614
   6 O :   -0.157034
   7 H :    0.105594
   8 H :   -0.054408
   9 H :   -0.064014
  10 H :   -0.065768
  11 H :   -0.066295
  12 N :   -0.110130
  13 H :    0.069216
  14 H :    0.037729
Sum of atomic charges:    0.0000000

LOEWDIN ATOMIC CHARGES
----------------------
   0 C :   -0.040649
   1 C :   -0.050226
   2 C :   -0.042371
   3 C :   -0.051444
   4 C :   -0.081017
   5 C :   -0.073830
   6 O :    0.079105
   7 H :    0.034179
   8 H :    0.022347
   9 H :    0.013621
  10 H :    0.018825
  11 H :    0.017116
  12 N :    0.066054
  13 H :    0.054333
  14 H :    0.033957

  Mayer bond orders larger than 0.1
B(  0-C ,  1-C ) :   1.4538 B(  0-C ,  5-C ) :   1.4238 B(  0-C ,  8-H ) :   0.9172
B(  1-C ,  2-C ) :   1.4418 B(  1-C , 10-H ) :   0.9333 B(  2-C ,  3-C ) :   1.4630
B(  2-C , 11-H ) :   0.9275 B(  3-C ,  4-C ) :   1.3393 B(  3-C ,  9-H ) :   0.9214
B(  4-C ,  5-C ) :   1.2168 B(  4-C , 12-N ) :   1.2116 B(  5-C ,  6-O ) :   1.1915
B(  6-O ,  7-H ) :   1.0197 B( 12-N , 13-H ) :   0.9657 B( 12-N , 14-H ) :   0.9658

FINAL SINGLE POINT ENERGY      -362.719732428175

DIPOLE MOMENT
-------------
                                X             Y             Z
Electronic contribution:     -1.84076       0.11045       0.97250
Nuclear contribution   :      1.97860       1.16144      -0.79391
                        -----------------------------------------
Total Dipole Moment    :      0.13784       1.27189       0.17859
                        -----------------------------------------
Magnitude (a.u.)       :      1.29175
Magnitude (Debye)      :      3.28336

CHEMICAL SHIELDING SUMMARY (ppm)
--------------------------

  Nucleus  Element    Isotropic     Anisotropy
  -------  -------  ------------   ------------
      0       C           83.559        129.531
      1       C           79.275        144.693
      2       C           77.498        146.797
      3       C           86.014        122.328
      4       C           71.197        124.090
      5       C           58.347        104.849
      6       O          238.577         81.017
      7       H           29.520         11.518
      8       H           24.901          5.096
      9       H           25.365          5.695
     10       H           24.966          3.360
     11       H           24.970          3.771
     12       N          215.035         53.448
     13       H           28.602         12.278
     14       H           29.404         11.034

                             ****ORCA TERMINATED NORMALLY****
TOTAL RUN TIME: 0 days 0 hours 1 minutes 4 seconds 790 msec
