                         Program Version 4.0.0.2 - RELEASE -
|  1> !aug-cc-pVDZ B3LYP NMR
|  2>
|  3> *xyzfile 0 1 guess.xyz
|  4>
|  5>
|  6>                          ****END OF INPUT****

CARTESIAN COORDINATES (ANGSTROEM)
---------------------------------
  C     -3.615590    1.886830    0.532890
  C     -4.333310    2.627070    1.612600
  C     -3.531860    3.374800    0.598990
  C     -5.790840    2.726580    1.218650
  H     -4.060360    2.565700    2.648180
  C     -5.532360    2.780490   -0.322250
  H     -6.260310    3.638520    1.598940
  H     -6.361350    1.842930    1.519180
  C     -4.492930    3.943100   -0.418660
  H     -2.629700    3.903280    0.838740
  H     -4.042600    4.020720   -1.412540
  H     -4.907180    4.905840   -0.105260
  C     -4.629180    1.521890   -0.526210
  H     -2.779470    1.241550    0.720500
  H     -5.150170    0.587690   -0.297070
  H     -4.185440    1.482490   -1.525280
  H     -6.412230    2.858340   -0.960300

 Total Charge           Charge          ....    0
 Multiplicity           Mult            ....    1
 Number of Electrons    NEL             ....   52
 Basis Dimension        Dim             ....  251

ORBITAL ENERGIES
----------------

  NO   OCC          E(Eh)            E(eV)
   0   2.0000     -10.181905      -277.0637
   1   2.0000     -10.173089      -276.8238
   2   2.0000     -10.172729      -276.8140
   3   2.0000     -10.172676      -276.8126
   4   2.0000     -10.172438      -276.8061
   5   2.0000     -10.172393      -276.8049
   6   2.0000     -10.172384      -276.8046
   7   2.0000      -0.917322       -24.9616
   8   2.0000      -0.749105       -20.3842
   9   2.0000      -0.708492       -19.2790
  10   2.0000      -0.707450       -19.2507
  11   2.0000      -0.559645       -15.2287
  12   2.0000      -0.537167       -14.6171
  13   2.0000      -0.536850       -14.6084
  14   2.0000      -0.521374       -14.1873
  15   2.0000      -0.451470       -12.2851
  16   2.0000      -0.451349       -12.2818
  17   2.0000      -0.422301       -11.4914
  18   2.0000      -0.368084       -10.0161
  19   2.0000      -0.356017        -9.6877
  20   2.0000      -0.355108        -9.6630
  21   2.0000      -0.342603        -9.3227
  22   2.0000      -0.313540        -8.5319
  23   2.0000      -0.312112        -8.4930
  24   2.0000      -0.268814        -7.3148
  25   2.0000      -0.267744        -7.2857
  26   0.0000      -0.007197        -0.1958
  27   0.0000       0.010874         0.2959
  28   0.0000       0.013063         0.3555
  29   0.0000       0.013419         0.3651
  30   0.0000       0.032283         0.8785

MULLIKEN ATOMIC CHARGES
-----------------------
   0 C :    0.773803
   1 C :    0.851134
   2 C :    0.798247
   3 C :    0.902873
   4 H :   -0.771934
   5 C :    1.080086
   6 H :   -0.557877
   7 H :   -0.540985
   8 C :    0.958069
   9 H :   -0.770066
  10 H :   -0.554233
  11 H :   -0.567698
  12 C :    0.939283
  13 H :   -0.755001
  14 H :   -0.545768
  15 H :   -0.556338
  16 H :   -0.683593
Sum of atomic charges:   -0.0000000

LOEWDIN ATOMIC CHARGES
----------------------
   0 C :   -0.502807
   1 C :   -0.500400
   2 C :   -0.503161
   3 C :   -0.330055
   4 H :    0.312501
   5 C :   -0.796251
   6 H :    0.339408
   7 H :    0.339660
   8 C :   -0.328946
   9 H :    0.312819
  10 H :    0.339580
  11 H :    0.339883
  12 C :   -0.329339
  13 H :    0.313147
  14 H :    0.340181
  15 H :    0.339474
  16 H :    0.314305

  Mayer bond orders larger than 0.1
B(  0-C ,  1-C ) :   1.0440 B(  0-C ,  2-C ) :   1.0385 B(  0-C ,  4-H ) :   0.1441
B(  0-C ,  5-C ) :  -0.1341 B(  0-C ,  9-H ) :   0.1304 B(  0-C , 12-C ) :   1.1931
B(  0-C , 13-H ) :  -0.1604 B(  0-C , 14-H ) :   0.1320 B(  0-C , 15-H ) :   0.1425
B(  1-C ,  2-C ) :   1.0343 B(  1-C ,  3-C ) :   1.1854 B(  1-C ,  4-H ) :  -0.2418
B(  1-C ,  5-C ) :  -0.1286 B(  1-C ,  6-H ) :   0.1209 B(  1-C ,  7-H ) :   0.1239
B(  1-C ,  9-H ) :   0.1244 B(  1-C , 13-H ) :   0.1216 B(  2-C ,  4-H ) :   0.1154
B(  2-C ,  5-C ) :  -0.1280 B(  2-C ,  8-C ) :   1.1944 B(  2-C ,  9-H ) :  -0.2018
B(  2-C , 10-H ) :   0.1408 B(  2-C , 11-H ) :   0.1345 B(  2-C , 13-H ) :   0.1103
B(  3-C ,  4-H ) :   0.1421 B(  3-C ,  5-C ) :   1.0874 B(  3-C ,  6-H ) :   0.3357
B(  3-C ,  7-H ) :   0.3433 B(  3-C , 11-H ) :   0.1041 B(  3-C , 16-H ) :   0.1308
B(  4-H ,  5-C ) :  -0.1065 B(  5-C ,  8-C ) :   1.1009 B(  5-C ,  9-H ) :  -0.1071
B(  5-C , 12-C ) :   1.1069 B(  5-C , 13-H ) :  -0.1050 B(  5-C , 16-H ) :  -0.2607
B(  6-H ,  7-H ) :  -0.3346 B(  7-H , 12-C ) :   0.1011 B(  8-C ,  9-H ) :   0.1318
B(  8-C , 10-H ) :   0.3337 B(  8-C , 11-H ) :   0.3185 B(  8-C , 16-H ) :   0.1420
B( 10-H , 11-H ) :  -0.3152 B( 12-C , 13-H ) :   0.1272 B( 12-C , 14-H ) :   0.3272
B( 12-C , 15-H ) :   0.3274 B( 12-C , 16-H ) :   0.1381 B( 14-H , 15-H ) :  -0.3126

FINAL SINGLE POINT ENERGY      -272.563444503370

DIPOLE MOMENT
-------------
                                X             Y             Z
Electronic contribution:      0.99546      -0.08499       0.69770
Nuclear contribution   :     -0.98865       0.08639      -0.69227
                        -----------------------------------------
Total Dipole Moment    :      0.00681       0.00139       0.00543
                        -----------------------------------------
Magnitude (a.u.)       :      0.00882
Magnitude (Debye)      :      0.02242

CHEMICAL SHIELDING SUMMARY (ppm)
--------------------------

  Nucleus  Element    Isotropic     Anisotropy
  -------  -------  ------------   ------------
      0       C          181.757         58.656
      1       C          181.811         59.700
      2       C          181.662         58.978
      3       C          156.301         28.982
      4       H           31.214         15.264
      5       C          155.576          1.857
      6       H           30.453         11.834
      7       H           30.458         11.841
      8       C          156.579         28.170
      9       H           31.162         15.225
     10       H           30.470         11.834
     11       H           30.427         11.847
     12       C          156.569         28.314
     13       H           31.159         15.231
     14       H           30.460         11.811
     15       H           30.460         11.857
     16       H           29.779         11.421

                             ****ORCA TERMINATED NORMALLY****
TOTAL RUN TIME: 0 days 0 hours 14 minutes 1 seconds 185 msec
