                         Program Version 4.0.0.2 - RELEASE -
|  1> !cc-pvdz BP86 NMR
|  2>
|  3> *xyzfile 0 1 guess.xyz
|  4>
|  5>
|  6>                          ****END OF INPUT****

CARTESIAN COORDINATES (ANGSTROEM)
---------------------------------
  C    -12.484130   -1.238870    7.338640
  C    -12.433610    0.055840    6.518580
  H    -12.810520   -1.051530    8.367000
  H    -11.500790   -1.718880    7.389660
  H    -13.196770   -1.948420    6.903570
  C    -11.553670    1.104750    7.208880
  H    -11.890840    1.302010    8.232030
  H    -11.590990    2.059360    6.672320
  H    -10.510000    0.776820    7.265160
  C    -11.839560   -0.256900    5.137650
  H    -10.821490   -0.653560    5.211960
  H    -11.815170    0.642740    4.511610
  H    -12.457650   -0.988490    4.604180
  O    -13.751830    0.559030    6.253580
  C    -14.522340    0.966020    7.373790
  H    -14.678470    0.142610    8.074620
  H    -15.503190    1.283220    7.007640
  H    -14.064680    1.819650    7.879810

 Total Charge           Charge          ....    0
 Multiplicity           Mult            ....    1
 Number of Electrons    NEL             ....   50
 Basis Dimension        Dim             ....  144

ORBITAL ENERGIES
----------------

  NO   OCC          E(Eh)            E(eV)
   0   2.0000     -18.774876      -510.8903
   1   2.0000      -9.963696      -271.1260
   2   2.0000      -9.944001      -270.5900
   3   2.0000      -9.899567      -269.3809
   4   2.0000      -9.899222      -269.3715
   5   2.0000      -9.896038      -269.2849
   6   2.0000      -0.936246       -25.4765
   7   2.0000      -0.723818       -19.6961
   8   2.0000      -0.628824       -17.1112
   9   2.0000      -0.623399       -16.9636
  10   2.0000      -0.605297       -16.4710
  11   2.0000      -0.492478       -13.4010
  12   2.0000      -0.433515       -11.7966
  13   2.0000      -0.411780       -11.2051
  14   2.0000      -0.407283       -11.0827
  15   2.0000      -0.381802       -10.3894
  16   2.0000      -0.363405        -9.8887
  17   2.0000      -0.351490        -9.5645
  18   2.0000      -0.337223        -9.1763
  19   2.0000      -0.329455        -8.9649
  20   2.0000      -0.316025        -8.5995
  21   2.0000      -0.298434        -8.1208
  22   2.0000      -0.297938        -8.1073
  23   2.0000      -0.251065        -6.8318
  24   2.0000      -0.202652        -5.5144
  25   0.0000       0.034985         0.9520
  26   0.0000       0.060746         1.6530
  27   0.0000       0.081093         2.2067
  28   0.0000       0.083929         2.2838
  29   0.0000       0.102367         2.7856

MULLIKEN ATOMIC CHARGES
-----------------------
   0 C :    0.023022
   1 C :   -0.174453
   2 H :    0.020691
   3 H :    0.026037
   4 H :    0.030600
   5 C :    0.022657
   6 H :    0.018646
   7 H :    0.029804
   8 H :    0.026900
   9 C :    0.021081
  10 H :    0.023928
  11 H :    0.026541
  12 H :    0.027473
  13 O :   -0.281263
  14 C :    0.093734
  15 H :    0.015782
  16 H :    0.036012
  17 H :    0.012809
Sum of atomic charges:    0.0000000

LOEWDIN ATOMIC CHARGES
----------------------
   0 C :   -0.071334
   1 C :   -0.075208
   2 H :    0.024554
   3 H :    0.032527
   4 H :    0.031245
   5 C :   -0.070798
   6 H :    0.024683
   7 H :    0.031108
   8 H :    0.032888
   9 C :   -0.063100
  10 H :    0.029675
  11 H :    0.029539
  12 H :    0.029877
  13 O :    0.010737
  14 C :   -0.042081
  15 H :    0.008399
  16 H :    0.029241
  17 H :    0.008048

  Mayer bond orders larger than 0.1
B(  0-C ,  1-C ) :   1.0490 B(  0-C ,  2-H ) :   0.9463 B(  0-C ,  3-H ) :   0.9520
B(  0-C ,  4-H ) :   0.9538 B(  1-C ,  5-C ) :   1.0461 B(  1-C ,  9-C ) :   1.0694
B(  1-C , 13-O ) :   1.0301 B(  5-C ,  6-H ) :   0.9477 B(  5-C ,  7-H ) :   0.9538
B(  5-C ,  8-H ) :   0.9529 B(  9-C , 10-H ) :   0.9529 B(  9-C , 11-H ) :   0.9551
B(  9-C , 12-H ) :   0.9549 B( 13-O , 14-C ) :   1.0669 B( 14-C , 15-H ) :   0.9541
B( 14-C , 16-H ) :   0.9759 B( 14-C , 17-H ) :   0.9555

FINAL SINGLE POINT ENERGY      -272.968708744738

DIPOLE MOMENT
-------------
                                X             Y             Z
Electronic contribution:     -2.22718       0.73384      -1.79000
Nuclear contribution   :      2.37446      -0.75662       2.17926
                        -----------------------------------------
Total Dipole Moment    :      0.14728      -0.02278       0.38926
                        -----------------------------------------
Magnitude (a.u.)       :      0.41682
Magnitude (Debye)      :      1.05947

CHEMICAL SHIELDING SUMMARY (ppm)
--------------------------

  Nucleus  Element    Isotropic     Anisotropy
  -------  -------  ------------   ------------
      0       C          167.729         39.516
      1       C          117.779         62.274
      2       H           29.741          6.770
      3       H           30.407          7.545
      4       H           30.502          8.279
      5       C          167.383         38.832
      6       H           29.788          6.690
      7       H           30.456          8.356
      8       H           30.383          7.511
      9       C          160.414         47.582
     10       H           30.372          8.108
     11       H           30.185          7.595
     12       H           30.140          7.571
     13       O          271.572         89.680
     14       C          143.798         71.167
     15       H           28.288          8.737
     16       H           28.206          8.741
     17       H           28.214          8.964

                             ****ORCA TERMINATED NORMALLY****
TOTAL RUN TIME: 0 days 0 hours 1 minutes 28 seconds 792 msec
