                         Program Version 4.0.0.2 - RELEASE -
|  1> !aug-cc-pVDZ B3LYP NMR
|  2>
|  3> *xyzfile 0 1 guess.xyz
|  4>
|  5>
|  6>                          ****END OF INPUT****

CARTESIAN COORDINATES (ANGSTROEM)
---------------------------------
  C     -6.344340    1.097480   -0.002750
  C     -5.015020    1.958450    0.017020
  H     -7.098530    1.543070    0.659040
  H     -6.264690    0.052630    0.339660
  H     -6.806680    1.034400   -0.997800
  O     -4.981790    3.179460    0.003290
  H     -4.026780    1.430760   -0.018460

 Total Charge           Charge          ....    0
 Multiplicity           Mult            ....    1
 Number of Electrons    NEL             ....   24
 Basis Dimension        Dim             ....  105

ORBITAL ENERGIES
----------------

  NO   OCC          E(Eh)            E(eV)
   0   2.0000     -19.159942      -521.3685
   1   2.0000     -10.294924      -280.1391
   2   2.0000     -10.206034      -277.7203
   3   2.0000      -1.055591       -28.7241
   4   2.0000      -0.742763       -20.2116
   5   2.0000      -0.590797       -16.0764
   6   2.0000      -0.480109       -13.0644
   7   2.0000      -0.442683       -12.0460
   8   2.0000      -0.439924       -11.9709
   9   2.0000      -0.397079       -10.8051
  10   2.0000      -0.374117       -10.1802
  11   2.0000      -0.267260        -7.2725
  12   0.0000      -0.049662        -1.3514
  13   0.0000      -0.009530        -0.2593
  14   0.0000       0.008338         0.2269
  15   0.0000       0.023331         0.6349
  16   0.0000       0.028604         0.7784

MULLIKEN ATOMIC CHARGES
-----------------------
   0 C :    0.687168
   1 C :    0.817411
   2 H :   -0.230811
   3 H :   -0.295016
   4 H :   -0.222558
   5 O :   -0.492252
   6 H :   -0.263942
Sum of atomic charges:   -0.0000000

LOEWDIN ATOMIC CHARGES
----------------------
   0 C :   -0.552273
   1 C :   -0.739819
   2 H :    0.232609
   3 H :    0.222279
   4 H :    0.234996
   5 O :    0.367091
   6 H :    0.235117

  Mayer bond orders larger than 0.1
B(  0-C ,  1-C ) :   0.9422 B(  0-C ,  2-H ) :   0.9500 B(  0-C ,  3-H ) :   0.8844
B(  0-C ,  4-H ) :   0.9204 B(  1-C ,  5-O ) :   1.6901 B(  1-C ,  6-H ) :   0.7882

FINAL SINGLE POINT ENERGY      -153.757510064530

DIPOLE MOMENT
-------------
                                X             Y             Z
Electronic contribution:      1.97383       2.90250       0.02433
Nuclear contribution   :     -2.20375      -3.98265      -0.03407
                        -----------------------------------------
Total Dipole Moment    :     -0.22992      -1.08015      -0.00974
                        -----------------------------------------
Magnitude (a.u.)       :      1.10439
Magnitude (Debye)      :      2.80713

CHEMICAL SHIELDING SUMMARY (ppm)
--------------------------

  Nucleus  Element    Isotropic     Anisotropy
  -------  -------  ------------   ------------
      0       C          161.204         51.713
      1       C          -10.814         41.046
      2       H           29.709          5.511
      3       H           29.017          4.315
      4       H           29.551          5.698
      5       O         -364.718       -958.138
      6       H           20.754          2.134

                             ****ORCA TERMINATED NORMALLY****
TOTAL RUN TIME: 0 days 0 hours 0 minutes 37 seconds 486 msec
