                         Program Version 4.0.0.2 - RELEASE -
|  1> !aug-cc-pVDZ B3LYP NMR
|  2>
|  3> *xyzfile 0 1 guess.xyz
|  4>
|  5>
|  6>                          ****END OF INPUT****

CARTESIAN COORDINATES (ANGSTROEM)
---------------------------------
  C     -0.984540    2.968550   -0.504070
  C     -0.889710    3.971700    0.668740
  C      0.478140    2.588530   -0.749830
  H     -1.442370    3.435600   -1.381640
  H     -1.572090    2.086440   -0.237770
  C      0.963780    1.845270    0.496240
  C      1.034210    2.712390    1.501980
  C      0.650000    4.046430    0.925360
  H     -1.459590    3.610210    1.534510
  H     -1.325320    4.937190    0.383910
  H      1.221360    0.793700    0.526420
  H      1.303910    2.533980    2.541770
  C      1.273900    3.867380   -0.498440
  H      0.713370    2.135650   -1.710850
  H      0.951570    4.913480    1.518130
  C      0.979220    5.090930   -1.374520
  H      2.318840    3.479740   -0.630710
  H      1.500290    5.056550   -2.334750
  H      1.254810    6.030750   -0.876750
  H     -0.084240    5.188110   -1.605450

 Total Charge           Charge          ....    0
 Multiplicity           Mult            ....    1
 Number of Electrons    NEL             ....   60
 Basis Dimension        Dim             ....  292

ORBITAL ENERGIES
----------------

  NO   OCC          E(Eh)            E(eV)
   0   2.0000     -10.182101      -277.0690
   1   2.0000     -10.181832      -277.0617
   2   2.0000     -10.177490      -276.9436
   3   2.0000     -10.175019      -276.8763
   4   2.0000     -10.171183      -276.7720
   5   2.0000     -10.171005      -276.7671
   6   2.0000     -10.169564      -276.7279
   7   2.0000     -10.166184      -276.6359
   8   2.0000      -0.887530       -24.1509
   9   2.0000      -0.747669       -20.3451
  10   2.0000      -0.734784       -19.9945
  11   2.0000      -0.715318       -19.4648
  12   2.0000      -0.644242       -17.5307
  13   2.0000      -0.580184       -15.7876
  14   2.0000      -0.537664       -14.6306
  15   2.0000      -0.515914       -14.0387
  16   2.0000      -0.505397       -13.7526
  17   2.0000      -0.476965       -12.9789
  18   2.0000      -0.439154       -11.9500
  19   2.0000      -0.407576       -11.0907
  20   2.0000      -0.390360       -10.6222
  21   2.0000      -0.386572       -10.5192
  22   2.0000      -0.370675       -10.0866
  23   2.0000      -0.340280        -9.2595
  24   2.0000      -0.339820        -9.2470
  25   2.0000      -0.334908        -9.1133
  26   2.0000      -0.326849        -8.8940
  27   2.0000      -0.314116        -8.5475
  28   2.0000      -0.285608        -7.7718
  29   2.0000      -0.237719        -6.4687
  30   0.0000      -0.008159        -0.2220
  31   0.0000       0.004644         0.1264
  32   0.0000       0.006732         0.1832
  33   0.0000       0.010255         0.2791
  34   0.0000       0.012348         0.3360

MULLIKEN ATOMIC CHARGES
-----------------------
   0 C :    1.034081
   1 C :    0.900591
   2 C :    1.198583
   3 H :   -0.481488
   4 H :   -0.512256
   5 C :    0.703616
   6 C :    0.589188
   7 C :    1.421851
   8 H :   -0.532552
   9 H :   -0.517718
  10 H :   -0.730369
  11 H :   -0.709737
  12 C :    0.027317
  13 H :   -0.910438
  14 H :   -0.936829
  15 C :    1.147516
  16 H :   -0.670949
  17 H :   -0.330056
  18 H :   -0.297624
  19 H :   -0.392727
Sum of atomic charges:    0.0000000

LOEWDIN ATOMIC CHARGES
----------------------
   0 C :   -0.443583
   1 C :   -0.425611
   2 C :   -0.791861
   3 H :    0.337612
   4 H :    0.341436
   5 C :   -0.134920
   6 C :   -0.132289
   7 C :   -0.750621
   8 H :    0.340953
   9 H :    0.336476
  10 H :    0.288833
  11 H :    0.299593
  12 C :   -0.964876
  13 H :    0.350434
  14 H :    0.348732
  15 C :   -0.258096
  16 H :    0.400023
  17 H :    0.281105
  18 H :    0.296201
  19 H :    0.280460

  Mayer bond orders larger than 0.1
B(  0-C ,  1-C ) :   1.3997 B(  0-C ,  2-C ) :   1.2888 B(  0-C ,  3-H ) :   0.2459
B(  0-C ,  4-H ) :   0.3001 B(  0-C ,  8-H ) :   0.2485 B(  0-C ,  9-H ) :   0.1753
B(  0-C , 10-H ) :   0.1241 B(  0-C , 13-H ) :   0.2107 B(  1-C ,  3-H ) :   0.1444
B(  1-C ,  4-H ) :   0.2265 B(  1-C ,  7-C ) :   1.1424 B(  1-C ,  8-H ) :   0.3658
B(  1-C ,  9-H ) :   0.3459 B(  1-C , 11-H ) :   0.1379 B(  1-C , 14-H ) :   0.2587
B(  2-C ,  3-H ) :   0.2246 B(  2-C ,  5-C ) :   1.0791 B(  2-C , 12-C ) :   1.1593
B(  2-C , 13-H ) :  -1.0626 B(  2-C , 14-H ) :   0.1110 B(  2-C , 15-C ) :  -0.1981
B(  2-C , 16-H ) :   0.2449 B(  2-C , 19-H ) :  -0.2107 B(  3-H ,  4-H ) :  -0.3596
B(  5-C ,  6-C ) :   2.0073 B(  5-C ,  7-C ) :  -0.1023 B(  5-C , 10-H ) :  -0.3010
B(  5-C , 11-H ) :   0.2818 B(  5-C , 13-H ) :   0.3463 B(  6-C ,  7-C ) :   1.1917
B(  6-C , 10-H ) :   0.4361 B(  6-C , 11-H ) :  -0.1574 B(  6-C , 14-H ) :   0.3197
B(  7-C ,  9-H ) :   0.1793 B(  7-C , 10-H ) :  -0.1199 B(  7-C , 12-C ) :   0.8593
B(  7-C , 13-H ) :   0.1372 B(  7-C , 14-H ) :  -1.1096 B(  7-C , 18-H ) :  -0.1246
B(  8-H ,  9-H ) :  -0.3434 B( 10-H , 12-C ) :   0.1973 B( 12-C , 13-H ) :   0.1586
B( 12-C , 14-H ) :   0.2279 B( 12-C , 15-C ) :   1.3030 B( 12-C , 17-H ) :   0.2594
B( 12-C , 18-H ) :   0.1455 B( 12-C , 19-H ) :   0.5019 B( 15-C , 17-H ) :   0.5962
B( 15-C , 18-H ) :   0.6577 B( 15-C , 19-H ) :   0.8101 B( 17-H , 18-H ) :  -0.1678

FINAL SINGLE POINT ENERGY      -311.837133757484

DIPOLE MOMENT
-------------
                                X             Y             Z
Electronic contribution:      1.52248      -2.90828       2.42219
Nuclear contribution   :     -1.56403       2.97033      -2.47598
                        -----------------------------------------
Total Dipole Moment    :     -0.04155       0.06206      -0.05379
                        -----------------------------------------
Magnitude (a.u.)       :      0.09204
Magnitude (Debye)      :      0.23394

CHEMICAL SHIELDING SUMMARY (ppm)
--------------------------

  Nucleus  Element    Isotropic     Anisotropy
  -------  -------  ------------   ------------
      0       C          171.243         19.799
      1       C          166.538         24.275
      2       C          143.474         20.679
      3       H           29.914          9.672
      4       H           30.568         11.737
      5       C           51.543        148.205
      6       C           51.765        157.453
      7       C          138.833         32.932
      8       H           30.471         11.419
      9       H           29.898          9.435
     10       H           25.155          2.126
     11       H           24.829          0.985
     12       C          128.511         52.543
     13       H           29.398          9.156
     14       H           29.406          8.677
     15       C          176.275         35.059
     16       H           28.925          7.885
     17       H           31.032         11.376
     18       H           30.908          9.801
     19       H           31.194          6.302

                             ****ORCA TERMINATED NORMALLY****
TOTAL RUN TIME: 0 days 0 hours 25 minutes 55 seconds 525 msec
