                         Program Version 4.0.0.2 - RELEASE -
|  1> !cc-pvdz BP86 NMR
|  2>
|  3> *xyzfile 0 1 guess.xyz
|  4>
|  5>
|  6>                          ****END OF INPUT****

CARTESIAN COORDINATES (ANGSTROEM)
---------------------------------
  C    -19.678670    2.328430   10.630590
  C    -18.382700    2.323280    9.998670
  C    -17.642030    3.482090    9.827740
  C    -18.198270    4.640900   10.350130
  C    -19.481680    4.639740   11.028210
  C    -20.278100    3.476420   11.193920
  H    -20.203320    1.377980   10.636960
  H    -19.804310    5.609800   11.398980
  H    -17.616800    5.558600   10.229260
  H    -16.677420    3.478010    9.303850
  H    -17.946070    1.393930    9.631370
  C    -21.633580    3.408150   11.894250
  C    -22.708820    3.293620   12.443670
  H    -23.685810    3.169100   12.938160

 Total Charge           Charge          ....    0
 Multiplicity           Mult            ....    1
 Number of Electrons    NEL             ....   54
 Basis Dimension        Dim             ....  142

ORBITAL ENERGIES
----------------

  NO   OCC          E(Eh)            E(eV)
   0   2.0000      -9.962445      -271.0919
   1   2.0000      -9.934752      -270.3383
   2   2.0000      -9.932161      -270.2678
   3   2.0000      -9.931948      -270.2621
   4   2.0000      -9.929231      -270.1881
   5   2.0000      -9.927369      -270.1375
   6   2.0000      -9.924939      -270.0713
   7   2.0000      -9.923156      -270.0228
   8   2.0000      -0.785372       -21.3711
   9   2.0000      -0.712677       -19.3929
  10   2.0000      -0.672294       -18.2941
  11   2.0000      -0.668877       -18.2011
  12   2.0000      -0.561172       -15.2703
  13   2.0000      -0.554420       -15.0865
  14   2.0000      -0.494788       -13.4639
  15   2.0000      -0.463783       -12.6202
  16   2.0000      -0.430215       -11.7067
  17   2.0000      -0.409900       -11.1540
  18   2.0000      -0.399826       -10.8798
  19   2.0000      -0.364988        -9.9318
  20   2.0000      -0.340831        -9.2745
  21   2.0000      -0.324324        -8.8253
  22   2.0000      -0.306973        -8.3532
  23   2.0000      -0.280033        -7.6201
  24   2.0000      -0.252029        -6.8581
  25   2.0000      -0.227081        -6.1792
  26   2.0000      -0.224658        -6.1133
  27   0.0000      -0.065706        -1.7880
  28   0.0000      -0.052601        -1.4313
  29   0.0000       0.001404         0.0382
  30   0.0000       0.033613         0.9146
  31   0.0000       0.035020         0.9529

MULLIKEN ATOMIC CHARGES
-----------------------
   0 C :    0.010373
   1 C :    0.021411
   2 C :    0.019298
   3 C :    0.015299
   4 C :    0.005683
   5 C :   -0.063599
   6 H :   -0.023792
   7 H :   -0.027055
   8 H :   -0.008384
   9 H :   -0.010402
  10 H :   -0.012261
  11 C :    0.646360
  12 C :   -0.578635
  13 H :    0.005705
Sum of atomic charges:    0.0000000

LOEWDIN ATOMIC CHARGES
----------------------
   0 C :   -0.002019
   1 C :   -0.024524
   2 C :   -0.031178
   3 C :   -0.024678
   4 C :   -0.002611
   5 C :   -0.052372
   6 H :    0.030540
   7 H :    0.029705
   8 H :    0.031679
   9 H :    0.035509
  10 H :    0.031065
  11 C :   -0.006474
  12 C :   -0.052294
  13 H :    0.037654

  Mayer bond orders larger than 0.1
B(  0-C ,  1-C ) :   1.4427 B(  0-C ,  5-C ) :   1.4173 B(  0-C ,  6-H ) :   0.9420
B(  1-C ,  2-C ) :   1.4586 B(  1-C , 10-H ) :   0.9349 B(  2-C ,  3-C ) :   1.4551
B(  2-C ,  9-H ) :   0.9394 B(  3-C ,  4-C ) :   1.4347 B(  3-C ,  8-H ) :   0.9364
B(  4-C ,  5-C ) :   1.4011 B(  4-C ,  7-H ) :   0.9459 B(  5-C , 11-C ) :   0.8267
B( 11-C , 12-C ) :   2.1568 B( 12-C , 13-H ) :   1.1004

FINAL SINGLE POINT ENERGY      -308.390733518242

DIPOLE MOMENT
-------------
                                X             Y             Z
Electronic contribution:     -2.05112       0.06397       1.09909
Nuclear contribution   :      2.26760      -0.09449      -1.22402
                        -----------------------------------------
Total Dipole Moment    :      0.21648      -0.03051      -0.12494
                        -----------------------------------------
Magnitude (a.u.)       :      0.25180
Magnitude (Debye)      :      0.64002

CHEMICAL SHIELDING SUMMARY (ppm)
--------------------------

  Nucleus  Element    Isotropic     Anisotropy
  -------  -------  ------------   ------------
      0       C           58.976        168.659
      1       C           63.560        165.835
      2       C           65.444        170.797
      3       C           62.257        166.869
      4       C           60.236        169.909
      5       C           64.558        139.743
      6       H           24.027          6.873
      7       H           24.039          6.349
      8       H           23.885          5.205
      9       H           23.778          4.485
     10       H           24.026          5.187
     11       C          112.069        258.587
     12       C          117.733        162.997
     13       H           27.919         11.320

                             ****ORCA TERMINATED NORMALLY****
TOTAL RUN TIME: 0 days 0 hours 0 minutes 58 seconds 385 msec
