                         Program Version 4.0.0.2 - RELEASE -
|  1> !aug-cc-pVDZ B3LYP NMR
|  2>
|  3> *xyzfile 0 1 guess.xyz
|  4>
|  5>
|  6>                          ****END OF INPUT****

CARTESIAN COORDINATES (ANGSTROEM)
---------------------------------
  C     -3.811030   -1.056290    2.125820
  C     -3.977940    0.289510    2.808070
  H     -4.190390   -1.855890    2.770210
  H     -2.764060   -1.275650    1.892610
  H     -4.375620   -1.086340    1.188230
  C     -3.017000    1.317570    2.269120
  H     -3.772650    0.182250    3.877670
  H     -5.000880    0.657050    2.677920
  O     -3.131300    2.516860    2.496330
  H     -2.132490    0.934810    1.731070

 Total Charge           Charge          ....    0
 Multiplicity           Mult            ....    1
 Number of Electrons    NEL             ....   32
 Basis Dimension        Dim             ....  146

ORBITAL ENERGIES
----------------

  NO   OCC          E(Eh)            E(eV)
   0   2.0000     -19.151954      -521.1512
   1   2.0000     -10.280307      -279.7414
   2   2.0000     -10.201108      -277.5863
   3   2.0000     -10.190692      -277.3028
   4   2.0000      -1.047649       -28.5080
   5   2.0000      -0.799488       -21.7552
   6   2.0000      -0.663517       -18.0552
   7   2.0000      -0.588451       -16.0126
   8   2.0000      -0.480235       -13.0679
   9   2.0000      -0.462766       -12.5925
  10   2.0000      -0.456681       -12.4269
  11   2.0000      -0.397776       -10.8240
  12   2.0000      -0.388663       -10.5761
  13   2.0000      -0.379099       -10.3158
  14   2.0000      -0.350985        -9.5508
  15   2.0000      -0.262026        -7.1301
  16   0.0000      -0.048520        -1.3203
  17   0.0000      -0.011019        -0.2998
  18   0.0000       0.006447         0.1754
  19   0.0000       0.012834         0.3492
  20   0.0000       0.017122         0.4659

MULLIKEN ATOMIC CHARGES
-----------------------
   0 C :    0.938391
   1 C :    0.684888
   2 H :   -0.306263
   3 H :   -0.289002
   4 H :   -0.271795
   5 C :    0.709879
   6 H :   -0.273215
   7 H :   -0.253976
   8 O :   -0.531940
   9 H :   -0.406967
Sum of atomic charges:   -0.0000000

LOEWDIN ATOMIC CHARGES
----------------------
   0 C :   -0.536287
   1 C :   -0.912571
   2 H :    0.250151
   3 H :    0.249336
   4 H :    0.263077
   5 C :   -0.636137
   6 H :    0.321269
   7 H :    0.317824
   8 O :    0.430823
   9 H :    0.252514

  Mayer bond orders larger than 0.1
B(  0-C ,  1-C ) :   1.2756 B(  0-C ,  2-H ) :   0.7741 B(  0-C ,  3-H ) :   0.9092
B(  0-C ,  4-H ) :   0.8725 B(  1-C ,  2-H ) :   0.1174 B(  1-C ,  5-C ) :   1.0235
B(  1-C ,  6-H ) :   0.7513 B(  1-C ,  7-H ) :   0.7252 B(  5-C ,  6-H ) :   0.1150
B(  5-C ,  7-H ) :   0.1106 B(  5-C ,  8-O ) :   1.6841 B(  5-C ,  9-H ) :   0.7061
B(  6-H ,  7-H ) :  -0.1599

FINAL SINGLE POINT ENERGY      -193.048320148303

DIPOLE MOMENT
-------------
                                X             Y             Z
Electronic contribution:      1.16091       5.39028       0.30878
Nuclear contribution   :     -1.24924      -6.57187      -0.37223
                        -----------------------------------------
Total Dipole Moment    :     -0.08833      -1.18159      -0.06345
                        -----------------------------------------
Magnitude (a.u.)       :      1.18658
Magnitude (Debye)      :      3.01605

CHEMICAL SHIELDING SUMMARY (ppm)
--------------------------

  Nucleus  Element    Isotropic     Anisotropy
  -------  -------  ------------   ------------
      0       C          182.615         14.522
      1       C          155.535         34.473
      2       H           30.284          8.094
      3       H           30.060          8.059
      4       H           30.498          8.727
      5       C          -20.693       -134.178
      6       H           29.482          6.727
      7       H           29.285          5.540
      8       O         -361.390       -948.497
      9       H           21.125          3.556

                             ****ORCA TERMINATED NORMALLY****
TOTAL RUN TIME: 0 days 0 hours 1 minutes 53 seconds 12 msec
