                         Program Version 4.0.0.2 - RELEASE -
|  1> !aug-cc-pVDZ B3LYP NMR
|  2>
|  3> *xyzfile 0 1 guess.xyz
|  4>
|  5>
|  6>                          ****END OF INPUT****

CARTESIAN COORDINATES (ANGSTROEM)
---------------------------------
  C     -6.012530    5.171680    0.187560
  C     -7.588080    4.890010    0.566630
  C     -5.713360    3.849560   -0.553280
  H     -5.836740    3.057870    0.216360
  H     -4.683490    3.676640   -0.878770
  H     -6.395500    3.630610   -1.370800
  C     -4.590240    5.320210    0.835040
  H     -4.229680    4.480740    1.430750
  H     -4.358590    6.264790    1.341800
  H     -3.877450    5.366240   -0.029310
  C     -6.108340    6.649220   -0.331370
  H     -5.155240    7.131460   -0.591100
  H     -6.457750    7.264390    0.527700
  H     -6.815380    6.821570   -1.140390
  O     -8.443040    5.801740    0.617700
  O     -8.005130    3.565010    0.507720
  C     -9.431630    3.297100    0.297280
  C     -9.772350    1.799170    0.184220
  H     -9.765440    3.778420   -0.631980
  H     -9.997900    3.707490    1.138170
  H     -9.394380    1.354300   -0.744380
  H    -10.862770    1.650450    0.179790
  H     -9.361550    1.216950    1.014260

 Total Charge           Charge          ....    0
 Multiplicity           Mult            ....    1
 Number of Electrons    NEL             ....   72
 Basis Dimension        Dim             ....  333

ORBITAL ENERGIES
----------------

  NO   OCC          E(Eh)            E(eV)
   0   2.0000     -19.189324      -522.1680
   1   2.0000     -19.135919      -520.7148
   2   2.0000     -10.324932      -280.9557
   3   2.0000     -10.246755      -278.8284
   4   2.0000     -10.231989      -278.4266
   5   2.0000     -10.190054      -277.2855
   6   2.0000     -10.189171      -277.2615
   7   2.0000     -10.175105      -276.8787
   8   2.0000     -10.174782      -276.8699
   9   2.0000      -1.085385       -29.5348
  10   2.0000      -1.000187       -27.2165
  11   2.0000      -0.821148       -22.3446
  12   2.0000      -0.770199       -20.9582
  13   2.0000      -0.701317       -19.0838
  14   2.0000      -0.681763       -18.5517
  15   2.0000      -0.648607       -17.6495
  16   2.0000      -0.594436       -16.1754
  17   2.0000      -0.549237       -14.9455
  18   2.0000      -0.493635       -13.4325
  19   2.0000      -0.482871       -13.1396
  20   2.0000      -0.470628       -12.8064
  21   2.0000      -0.446289       -12.1442
  22   2.0000      -0.441810       -12.0223
  23   2.0000      -0.418995       -11.4014
  24   2.0000      -0.409798       -11.1512
  25   2.0000      -0.399785       -10.8787
  26   2.0000      -0.395778       -10.7697
  27   2.0000      -0.377783       -10.2800
  28   2.0000      -0.367392        -9.9972
  29   2.0000      -0.359309        -9.7773
  30   2.0000      -0.350518        -9.5381
  31   2.0000      -0.344015        -9.3611
  32   2.0000      -0.330322        -8.9885
  33   2.0000      -0.305107        -8.3024
  34   2.0000      -0.293777        -7.9941
  35   2.0000      -0.265489        -7.2243
  36   0.0000      -0.019818        -0.5393
  37   0.0000      -0.011295        -0.3074
  38   0.0000      -0.003150        -0.0857
  39   0.0000       0.010583         0.2880
  40   0.0000       0.014272         0.3884

MULLIKEN ATOMIC CHARGES
-----------------------
   0 C :    0.232799
   1 C :    0.458188
   2 C :    1.039562
   3 H :    0.011516
   4 H :   -0.672925
   5 H :   -0.378618
   6 C :    0.961264
   7 H :   -0.474327
   8 H :   -0.519241
   9 H :    0.109111
  10 C :    0.946983
  11 H :   -0.506822
  12 H :   -0.016412
  13 H :   -0.434995
  14 O :   -0.521236
  15 O :   -0.598579
  16 C :    1.245578
  17 C :    0.870394
  18 H :   -0.416195
  19 H :   -0.483892
  20 H :   -0.310704
  21 H :   -0.255111
  22 H :   -0.286336
Sum of atomic charges:   -0.0000000

LOEWDIN ATOMIC CHARGES
----------------------
   0 C :   -1.539830
   1 C :   -0.848587
   2 C :   -0.369231
   3 H :    0.327230
   4 H :    0.265798
   5 H :    0.272664
   6 C :   -0.413808
   7 H :    0.268931
   8 H :    0.271054
   9 H :    0.338553
  10 C :   -0.345494
  11 H :    0.272628
  12 H :    0.332894
  13 H :    0.268675
  14 O :    0.490560
  15 O :    0.393015
  16 C :   -0.862410
  17 C :   -0.497587
  18 H :    0.295466
  19 H :    0.288358
  20 H :    0.258683
  21 H :    0.273822
  22 H :    0.258615

  Mayer bond orders larger than 0.1
B(  0-C ,  1-C ) :   0.5260 B(  0-C ,  2-C ) :   1.0724 B(  0-C ,  3-H ) :   0.1913
B(  0-C ,  6-C ) :   0.9919 B(  0-C ,  9-H ) :   0.2433 B(  0-C , 10-C ) :   1.0529
B(  0-C , 12-H ) :   0.1761 B(  1-C ,  6-C ) :   0.1236 B(  1-C , 13-H ) :   0.1396
B(  1-C , 14-O ) :   1.4674 B(  1-C , 15-O ) :   0.6651 B(  1-C , 19-H ) :   0.1114
B(  2-C ,  3-H ) :   0.7640 B(  2-C ,  4-H ) :   0.6504 B(  2-C ,  5-H ) :   0.7181
B(  2-C ,  7-H ) :   0.2179 B(  3-H ,  5-H ) :  -0.1312 B(  4-H ,  5-H ) :  -0.2559
B(  4-H ,  6-C ) :   0.1115 B(  4-H ,  9-H ) :  -0.1203 B(  6-C ,  7-H ) :   0.6666
B(  6-C ,  8-H ) :   0.6864 B(  6-C ,  9-H ) :   0.7725 B(  7-H ,  8-H ) :  -0.2788
B(  9-H , 11-H ) :  -0.1108 B( 10-C , 11-H ) :   0.7755 B( 10-C , 12-H ) :   0.7987
B( 10-C , 13-H ) :   0.7605 B( 11-H , 13-H ) :  -0.2154 B( 12-H , 13-H ) :  -0.1161
B( 15-O , 16-C ) :   0.7628 B( 16-C , 17-C ) :   1.1648 B( 16-C , 18-H ) :   0.7074
B( 16-C , 19-H ) :   0.6717 B( 17-C , 20-H ) :   0.8596 B( 17-C , 21-H ) :   0.8451
B( 17-C , 22-H ) :   0.9026 B( 18-H , 19-H ) :  -0.1350 B( 20-H , 22-H ) :  -0.1246

FINAL SINGLE POINT ENERGY      -425.343690263218

DIPOLE MOMENT
-------------
                                X             Y             Z
Electronic contribution:     -4.55979       2.23997       2.62035
Nuclear contribution   :      4.86314      -2.96154      -2.85809
                        -----------------------------------------
Total Dipole Moment    :      0.30334      -0.72157      -0.23774
                        -----------------------------------------
Magnitude (a.u.)       :      0.81805
Magnitude (Debye)      :      2.07932

CHEMICAL SHIELDING SUMMARY (ppm)
--------------------------

  Nucleus  Element    Isotropic     Anisotropy
  -------  -------  ------------   ------------
      0       C          131.892         90.219
      1       C           -1.137       -137.807
      2       C          153.222         41.600
      3       H           28.597          5.607
      4       H           30.173          6.486
      5       H           30.084          7.478
      6       C          145.841         58.929
      7       H           29.641          7.664
      8       H           29.592          7.930
      9       H           28.900          6.292
     10       C          154.774         44.609
     11       H           30.131          6.821
     12       H           28.624          5.951
     13       H           30.197          8.578
     14       O         -141.014       -349.204
     15       O           92.650         90.234
     16       C          123.895         66.308
     17       C          175.493         24.477
     18       H           27.482          5.272
     19       H           27.139          5.694
     20       H           30.158          7.437
     21       H           30.324          9.300
     22       H           30.234          7.593

                             ****ORCA TERMINATED NORMALLY****
TOTAL RUN TIME: 0 days 0 hours 34 minutes 41 seconds 548 msec
