                         Program Version 4.0.0.2 - RELEASE -
|  1> !cc-pvdz BP86 NMR
|  2>
|  3> *xyzfile 0 1 guess.xyz
|  4>
|  5>
|  6>                          ****END OF INPUT****

CARTESIAN COORDINATES (ANGSTROEM)
---------------------------------
  C    -16.861290    1.882200    9.083200
  C    -15.776720    1.316420    8.411440
  C    -14.696660    2.114100    8.010270
  C    -14.720090    3.486330    8.292350
  C    -15.805610    4.053470    8.964860
  C    -16.867930    3.244520    9.354640
  O    -17.946810    3.756580   10.012890
  H    -17.810640    4.710720   10.130240
  H    -17.697230    1.262010    9.393140
  H    -13.892090    4.123370    7.989820
  H    -15.802650    5.118450    9.172850
  H    -15.778790    0.249150    8.202540
  C    -13.537060    1.493410    7.288950
  H    -12.773270    2.237660    7.040700
  H    -13.876000    1.035550    6.354120
  H    -13.068770    0.728190    7.916300

 Total Charge           Charge          ....    0
 Multiplicity           Mult            ....    1
 Number of Electrons    NEL             ....   58
 Basis Dimension        Dim             ....  152

ORBITAL ENERGIES
----------------

  NO   OCC          E(Eh)            E(eV)
   0   2.0000     -18.811929      -511.8986
   1   2.0000      -9.964936      -271.1597
   2   2.0000      -9.911995      -269.7191
   3   2.0000      -9.911482      -269.7051
   4   2.0000      -9.910118      -269.6680
   5   2.0000      -9.910089      -269.6672
   6   2.0000      -9.906251      -269.5628
   7   2.0000      -9.905382      -269.5392
   8   2.0000      -0.973162       -26.4811
   9   2.0000      -0.776632       -21.1332
  10   2.0000      -0.695120       -18.9152
  11   2.0000      -0.677482       -18.4352
  12   2.0000      -0.614194       -16.7131
  13   2.0000      -0.561164       -15.2700
  14   2.0000      -0.529094       -14.3974
  15   2.0000      -0.490394       -13.3443
  16   2.0000      -0.431074       -11.7301
  17   2.0000      -0.414193       -11.2708
  18   2.0000      -0.386446       -10.5157
  19   2.0000      -0.376203       -10.2370
  20   2.0000      -0.374625       -10.1941
  21   2.0000      -0.355044        -9.6612
  22   2.0000      -0.350149        -9.5280
  23   2.0000      -0.322375        -8.7723
  24   2.0000      -0.306107        -8.3296
  25   2.0000      -0.293023        -7.9736
  26   2.0000      -0.282172        -7.6783
  27   2.0000      -0.225581        -6.1384
  28   2.0000      -0.186937        -5.0868
  29   0.0000      -0.036622        -0.9965
  30   0.0000      -0.015620        -0.4250
  31   0.0000       0.030295         0.8244
  32   0.0000       0.048268         1.3135
  33   0.0000       0.072598         1.9755

MULLIKEN ATOMIC CHARGES
-----------------------
   0 C :    0.032904
   1 C :    0.014012
   2 C :   -0.100784
   3 C :    0.019600
   4 C :   -0.003880
   5 C :    0.032084
   6 O :   -0.157810
   7 H :    0.144275
   8 H :   -0.016362
   9 H :   -0.036333
  10 H :   -0.026830
  11 H :   -0.038488
  12 C :    0.013865
  13 H :    0.023490
  14 H :    0.048968
  15 H :    0.051289
Sum of atomic charges:   -0.0000000

LOEWDIN ATOMIC CHARGES
----------------------
   0 C :   -0.044909
   1 C :   -0.022630
   2 C :   -0.053861
   3 C :   -0.028099
   4 C :   -0.074704
   5 C :   -0.069261
   6 O :    0.081305
   7 H :    0.059532
   8 H :    0.030555
   9 H :    0.026152
  10 H :    0.022902
  11 H :    0.027381
  12 C :   -0.066024
  13 H :    0.033242
  14 H :    0.039022
  15 H :    0.039397

  Mayer bond orders larger than 0.1
B(  0-C ,  1-C ) :   1.4783 B(  0-C ,  5-C ) :   1.3876 B(  0-C ,  8-H ) :   0.9191
B(  1-C ,  2-C ) :   1.4331 B(  1-C , 11-H ) :   0.9319 B(  2-C ,  3-C ) :   1.4525
B(  2-C , 12-C ) :   1.1083 B(  3-C ,  4-C ) :   1.4534 B(  3-C ,  9-H ) :   0.9193
B(  4-C ,  5-C ) :   1.3553 B(  4-C , 10-H ) :   0.9177 B(  5-C ,  6-O ) :   1.2279
B(  6-O ,  7-H ) :   0.9956 B( 12-C , 13-H ) :   0.9464 B( 12-C , 14-H ) :   0.9446
B( 12-C , 15-H ) :   0.9436

FINAL SINGLE POINT ENERGY      -346.803806016046

DIPOLE MOMENT
-------------
                                X             Y             Z
Electronic contribution:     -5.14685       2.34187       3.12187
Nuclear contribution   :      5.35527      -1.91936      -3.14489
                        -----------------------------------------
Total Dipole Moment    :      0.20842       0.42251      -0.02302
                        -----------------------------------------
Magnitude (a.u.)       :      0.47168
Magnitude (Debye)      :      1.19892

CHEMICAL SHIELDING SUMMARY (ppm)
--------------------------

  Nucleus  Element    Isotropic     Anisotropy
  -------  -------  ------------   ------------
      0       C           82.976        135.555
      1       C           66.431        153.922
      2       C           67.037        167.665
      3       C           66.761        140.645
      4       C           83.741        114.722
      5       C           44.844        126.480
      6       O          210.407         56.792
      7       H           28.154         11.148
      8       H           24.840          4.886
      9       H           24.585          5.904
     10       H           25.315          5.057
     11       H           24.372          6.444
     12       C          170.336         36.391
     13       H           29.748          6.788
     14       H           29.048          8.045
     15       H           29.020          8.021

                             ****ORCA TERMINATED NORMALLY****
TOTAL RUN TIME: 0 days 0 hours 1 minutes 12 seconds 875 msec
