                         Program Version 4.0.0.2 - RELEASE -
|  1> !cc-pvdz OLYP NMR
|  2>
|  3> *xyzfile 0 1 guess.xyz
|  4>
|  5>
|  6>                          ****END OF INPUT****

CARTESIAN COORDINATES (ANGSTROEM)
---------------------------------
  C    -17.001970    1.946380    9.168510
  C    -15.925600    1.365760    8.498080
  C    -14.847460    2.155220    8.096290
  C    -14.845940    3.525080    8.365000
  C    -15.922310    4.108200    9.035930
  C    -16.992830    3.311490    9.432360
  O    -18.064920    3.838570   10.090050
  H    -17.918700    4.791890   10.202050
  H    -17.844170    1.337460    9.483920
  H    -14.004770    4.137540    8.050830
  H    -15.907800    5.174160    9.238150
  H    -15.928280    0.299300    8.289650
  H    -14.008600    1.702600    7.573760

 Total Charge           Charge          ....    0
 Multiplicity           Mult            ....    1
 Number of Electrons    NEL             ....   50
 Basis Dimension        Dim             ....  128

ORBITAL ENERGIES
----------------

  NO   OCC          E(Eh)            E(eV)
   0   2.0000     -18.800763      -511.5948
   1   2.0000      -9.967319      -271.2245
   2   2.0000      -9.914286      -269.7814
   3   2.0000      -9.912939      -269.7448
   4   2.0000      -9.910805      -269.6867
   5   2.0000      -9.906242      -269.5625
   6   2.0000      -9.904303      -269.5098
   7   2.0000      -0.975754       -26.5516
   8   2.0000      -0.772577       -21.0229
   9   2.0000      -0.677052       -18.4235
  10   2.0000      -0.666070       -18.1247
  11   2.0000      -0.560639       -15.2558
  12   2.0000      -0.538209       -14.6454
  13   2.0000      -0.485975       -13.2241
  14   2.0000      -0.438925       -11.9438
  15   2.0000      -0.408841       -11.1251
  16   2.0000      -0.383361       -10.4318
  17   2.0000      -0.369317       -10.0496
  18   2.0000      -0.353935        -9.6311
  19   2.0000      -0.331951        -9.0328
  20   2.0000      -0.306829        -8.3492
  21   2.0000      -0.288801        -7.8587
  22   2.0000      -0.285978        -7.7818
  23   2.0000      -0.219082        -5.9615
  24   2.0000      -0.186934        -5.0867
  25   0.0000      -0.027074        -0.7367
  26   0.0000      -0.009112        -0.2479
  27   0.0000       0.022355         0.6083
  28   0.0000       0.042683         1.1615
  29   0.0000       0.079217         2.1556

MULLIKEN ATOMIC CHARGES
-----------------------
   0 C :    0.062730
   1 C :    0.067755
   2 C :    0.040423
   3 C :    0.058922
   4 C :    0.024300
   5 C :    0.062715
   6 O :   -0.164914
   7 H :    0.122887
   8 H :   -0.050884
   9 H :   -0.055373
  10 H :   -0.055784
  11 H :   -0.052271
  12 H :   -0.060505
Sum of atomic charges:   -0.0000000

LOEWDIN ATOMIC CHARGES
----------------------
   0 C :   -0.038369
   1 C :   -0.015475
   2 C :   -0.045184
   3 C :   -0.016615
   4 C :   -0.066404
   5 C :   -0.058547
   6 O :    0.082813
   7 H :    0.054543
   8 H :    0.023014
   9 H :    0.021740
  10 H :    0.016498
  11 H :    0.023247
  12 H :    0.018737

  Mayer bond orders larger than 0.1
B(  0-C ,  1-C ) :   1.4685 B(  0-C ,  5-C ) :   1.3779 B(  0-C ,  8-H ) :   0.9261
B(  1-C ,  2-C ) :   1.4356 B(  1-C , 11-H ) :   0.9367 B(  2-C ,  3-C ) :   1.4480
B(  2-C , 12-H ) :   0.9355 B(  3-C ,  4-C ) :   1.4508 B(  3-C ,  9-H ) :   0.9319
B(  4-C ,  5-C ) :   1.3371 B(  4-C , 10-H ) :   0.9274 B(  5-C ,  6-O ) :   1.1932
B(  6-O ,  7-H ) :   1.0061

FINAL SINGLE POINT ENERGY      -307.389602125666

DIPOLE MOMENT
-------------
                                X             Y             Z
Electronic contribution:     -1.84540       0.63053       1.08029
Nuclear contribution   :      1.95678      -0.13738      -1.03816
                        -----------------------------------------
Total Dipole Moment    :      0.11137       0.49316       0.04213
                        -----------------------------------------
Magnitude (a.u.)       :      0.50733
Magnitude (Debye)      :      1.28953

CHEMICAL SHIELDING SUMMARY (ppm)
--------------------------

  Nucleus  Element    Isotropic     Anisotropy
  -------  -------  ------------   ------------
      0       C           85.449        134.235
      1       C           68.977        162.927
      2       C           78.851        154.490
      3       C           69.321        160.454
      4       C           85.723        116.412
      5       C           45.397        127.507
      6       O          207.639         59.779
      7       H           28.116         11.257
      8       H           24.884          4.883
      9       H           24.474          4.459
     10       H           25.261          5.129
     11       H           24.356          4.339
     12       H           24.797          3.927

                             ****ORCA TERMINATED NORMALLY****
TOTAL RUN TIME: 0 days 0 hours 0 minutes 45 seconds 9 msec
