                         Program Version 4.0.0.2 - RELEASE -
|  1> !cc-pvdz BP86 NMR
|  2>
|  3> *xyzfile 0 1 guess.xyz
|  4>
|  5>
|  6>                          ****END OF INPUT****

CARTESIAN COORDINATES (ANGSTROEM)
---------------------------------
  C    -19.459240    2.355020   10.503830
  C    -18.168570    2.305240    9.911280
  C    -17.450500    3.475670    9.707430
  C    -17.975450    4.672240   10.234680
  C    -19.227980    4.703560   10.917320
  C    -19.964430    3.534860   11.077050
  H    -20.910000    3.521560   11.643470
  H    -20.085440    1.466610   10.475890
  H    -19.627990    5.651330   11.294580
  H    -17.393840    5.587990   10.142150
  H    -16.507880    3.462220    9.135840
  H    -17.736180    1.338680    9.635030

 Total Charge           Charge          ....    0
 Multiplicity           Mult            ....    1
 Number of Electrons    NEL             ....   42
 Basis Dimension        Dim             ....  114

ORBITAL ENERGIES
----------------

  NO   OCC          E(Eh)            E(eV)
   0   2.0000      -9.920166      -269.9414
   1   2.0000      -9.919808      -269.9317
   2   2.0000      -9.919445      -269.9218
   3   2.0000      -9.919259      -269.9168
   4   2.0000      -9.918917      -269.9075
   5   2.0000      -9.918706      -269.9017
   6   2.0000      -0.774359       -21.0714
   7   2.0000      -0.679831       -18.4992
   8   2.0000      -0.668779       -18.1984
   9   2.0000      -0.544284       -14.8107
  10   2.0000      -0.539543       -14.6817
  11   2.0000      -0.467583       -12.7236
  12   2.0000      -0.412671       -11.2293
  13   2.0000      -0.395127       -10.7520
  14   2.0000      -0.379291       -10.3210
  15   2.0000      -0.365772        -9.9531
  16   2.0000      -0.326280        -8.8785
  17   2.0000      -0.303999        -8.2722
  18   2.0000      -0.300388        -8.1740
  19   2.0000      -0.230530        -6.2730
  20   2.0000      -0.220847        -6.0095
  21   0.0000      -0.043439        -1.1820
  22   0.0000      -0.038028        -1.0348
  23   0.0000       0.037322         1.0156
  24   0.0000       0.078665         2.1406
  25   0.0000       0.083273         2.2660

MULLIKEN ATOMIC CHARGES
-----------------------
   0 C :    0.009901
   1 C :    0.014572
   2 C :    0.010979
   3 C :    0.010901
   4 C :    0.016725
   5 C :    0.012675
   6 H :   -0.009634
   7 H :   -0.012468
   8 H :   -0.015348
   9 H :   -0.014395
  10 H :   -0.009278
  11 H :   -0.014629
Sum of atomic charges:   -0.0000000

LOEWDIN ATOMIC CHARGES
----------------------
   0 C :   -0.026011
   1 C :   -0.029520
   2 C :   -0.033775
   3 C :   -0.026337
   4 C :   -0.029873
   5 C :   -0.034199
   6 H :    0.033211
   7 H :    0.027313
   8 H :    0.029500
   9 H :    0.026997
  10 H :    0.033246
  11 H :    0.029450

  Mayer bond orders larger than 0.1
B(  0-C ,  1-C ) :   1.4513 B(  0-C ,  5-C ) :   1.4552 B(  0-C ,  7-H ) :   0.9394
B(  1-C ,  2-C ) :   1.4657 B(  1-C , 11-H ) :   0.9394 B(  2-C ,  3-C ) :   1.4503
B(  2-C , 10-H ) :   0.9401 B(  3-C ,  4-C ) :   1.4474 B(  3-C ,  9-H ) :   0.9409
B(  4-C ,  5-C ) :   1.4623 B(  4-C ,  8-H ) :   0.9400 B(  5-C ,  6-H ) :   0.9392

FINAL SINGLE POINT ENERGY      -232.251281120610

DIPOLE MOMENT
-------------
                                X             Y             Z
Electronic contribution:      0.01086       0.00754       0.01446
Nuclear contribution   :     -0.01312      -0.01575      -0.02132
                        -----------------------------------------
Total Dipole Moment    :     -0.00226      -0.00821      -0.00686
                        -----------------------------------------
Magnitude (a.u.)       :      0.01094
Magnitude (Debye)      :      0.02780

CHEMICAL SHIELDING SUMMARY (ppm)
--------------------------

  Nucleus  Element    Isotropic     Anisotropy
  -------  -------  ------------   ------------
      0       C           65.441        169.072
      1       C           65.824        166.926
      2       C           66.195        167.037
      3       C           65.393        169.677
      4       C           65.815        167.881
      5       C           66.286        166.779
      6       H           23.776          4.541
      7       H           24.117          4.896
      8       H           23.915          4.775
      9       H           24.069          4.952
     10       H           23.722          4.620
     11       H           23.952          4.749

                             ****ORCA TERMINATED NORMALLY****
TOTAL RUN TIME: 0 days 0 hours 0 minutes 34 seconds 857 msec
