                         Program Version 4.0.0.2 - RELEASE -
|  1> !cc-pvdz BP86 NMR
|  2>
|  3> *xyzfile 0 1 guess.xyz
|  4>
|  5>
|  6>                          ****END OF INPUT****

CARTESIAN COORDINATES (ANGSTROEM)
---------------------------------
  C    -15.044710    2.469670    8.080800
  C    -14.004600    1.774380    7.467310
  C    -12.858460    2.455660    7.052210
  C    -12.739200    3.837100    7.257160
  C    -13.795980    4.532070    7.861000
  C    -14.934340    3.841410    8.271280
  O    -15.977960    4.484920    8.869120
  C    -11.521610    4.570600    6.777640
  H    -11.329870    5.455410    7.393710
  H    -11.659940    4.886200    5.739000
  H    -10.633030    3.933590    6.839700
  H    -15.758100    5.427990    8.938950
  H    -15.938870    1.945550    8.404990
  H    -14.087910    0.702450    7.309810
  H    -12.057660    1.901070    6.567900
  H    -13.719660    5.605540    8.005470

 Total Charge           Charge          ....    0
 Multiplicity           Mult            ....    1
 Number of Electrons    NEL             ....   58
 Basis Dimension        Dim             ....  152

ORBITAL ENERGIES
----------------

  NO   OCC          E(Eh)            E(eV)
   0   2.0000     -18.813514      -511.9417
   1   2.0000      -9.966730      -271.2085
   2   2.0000      -9.921530      -269.9785
   3   2.0000      -9.911863      -269.7155
   4   2.0000      -9.910126      -269.6682
   5   2.0000      -9.908095      -269.6130
   6   2.0000      -9.903214      -269.4801
   7   2.0000      -9.901310      -269.4283
   8   2.0000      -0.974279       -26.5115
   9   2.0000      -0.776657       -21.1339
  10   2.0000      -0.701352       -19.0848
  11   2.0000      -0.667719       -18.1696
  12   2.0000      -0.623435       -16.9645
  13   2.0000      -0.560979       -15.2650
  14   2.0000      -0.524596       -14.2750
  15   2.0000      -0.484315       -13.1789
  16   2.0000      -0.443625       -12.0717
  17   2.0000      -0.417640       -11.3646
  18   2.0000      -0.383167       -10.4265
  19   2.0000      -0.380779       -10.3615
  20   2.0000      -0.362533        -9.8650
  21   2.0000      -0.354769        -9.6538
  22   2.0000      -0.353105        -9.6085
  23   2.0000      -0.328675        -8.9437
  24   2.0000      -0.307016        -8.3543
  25   2.0000      -0.292607        -7.9622
  26   2.0000      -0.285194        -7.7605
  27   2.0000      -0.218888        -5.9562
  28   2.0000      -0.191783        -5.2187
  29   0.0000      -0.033828        -0.9205
  30   0.0000      -0.017843        -0.4855
  31   0.0000       0.029293         0.7971
  32   0.0000       0.049151         1.3375
  33   0.0000       0.068717         1.8699

MULLIKEN ATOMIC CHARGES
-----------------------
   0 C :    0.026970
   1 C :    0.039050
   2 C :   -0.008180
   3 C :   -0.087760
   4 C :   -0.012223
   5 C :    0.037754
   6 O :   -0.156422
   7 C :    0.012227
   8 H :    0.033498
   9 H :    0.059448
  10 H :    0.040208
  11 H :    0.145036
  12 H :   -0.020339
  13 H :   -0.018656
  14 H :   -0.044814
  15 H :   -0.045798
Sum of atomic charges:   -0.0000000

LOEWDIN ATOMIC CHARGES
----------------------
   0 C :   -0.053614
   1 C :   -0.022426
   2 C :   -0.054943
   3 C :   -0.028756
   4 C :   -0.077200
   5 C :   -0.062524
   6 O :    0.083439
   7 C :   -0.062958
   8 H :    0.035127
   9 H :    0.043844
  10 H :    0.038226
  11 H :    0.059573
  12 H :    0.029435
  13 H :    0.030376
  14 H :    0.023103
  15 H :    0.019298

  Mayer bond orders larger than 0.1
B(  0-C ,  1-C ) :   1.4772 B(  0-C ,  5-C ) :   1.3937 B(  0-C , 12-H ) :   0.9199
B(  1-C ,  2-C ) :   1.4459 B(  1-C , 13-H ) :   0.9298 B(  2-C ,  3-C ) :   1.4495
B(  2-C , 14-H ) :   0.9262 B(  3-C ,  4-C ) :   1.4446 B(  3-C ,  7-C ) :   1.1014
B(  4-C ,  5-C ) :   1.3455 B(  4-C , 15-H ) :   0.9093 B(  5-C ,  6-O ) :   1.2239
B(  6-O , 11-H ) :   0.9954 B(  7-C ,  8-H ) :   0.9472 B(  7-C ,  9-H ) :   0.9388
B(  7-C , 10-H ) :   0.9469

FINAL SINGLE POINT ENERGY      -346.804897403972

DIPOLE MOMENT
-------------
                                X             Y             Z
Electronic contribution:     -5.22245      -0.82839       2.36337
Nuclear contribution   :      5.49710       1.38269      -2.42124
                        -----------------------------------------
Total Dipole Moment    :      0.27465       0.55430      -0.05787
                        -----------------------------------------
Magnitude (a.u.)       :      0.62131
Magnitude (Debye)      :      1.57925

CHEMICAL SHIELDING SUMMARY (ppm)
--------------------------

  Nucleus  Element    Isotropic     Anisotropy
  -------  -------  ------------   ------------
      0       C           86.209        134.003
      1       C           66.268        163.838
      2       C           76.246        140.654
      3       C           56.537        174.981
      4       C           83.386        100.390
      5       C           42.118        126.569
      6       O          208.603         57.933
      7       C          169.781         36.901
      8       H           29.538          6.983
      9       H           28.967          8.239
     10       H           29.342          7.348
     11       H           28.098         10.941
     12       H           25.012          4.496
     13       H           24.386          4.263
     14       H           24.851          5.773
     15       H           25.343          6.883

                             ****ORCA TERMINATED NORMALLY****
TOTAL RUN TIME: 0 days 0 hours 1 minutes 11 seconds 747 msec
