                         Program Version 4.0.0.2 - RELEASE -
|  1> !aug-cc-pVDZ B3LYP NMR
|  2>
|  3> *xyzfile 0 1 guess.xyz
|  4>
|  5>
|  6>                          ****END OF INPUT****

CARTESIAN COORDINATES (ANGSTROEM)
---------------------------------
  C    -19.678670    2.328430   10.630590
  C    -18.382700    2.323280    9.998670
  C    -17.642030    3.482090    9.827740
  C    -18.198270    4.640900   10.350130
  C    -19.481680    4.639740   11.028210
  C    -20.278100    3.476420   11.193920
  H    -20.203320    1.377980   10.636960
  H    -19.804310    5.609800   11.398980
  H    -17.616800    5.558600   10.229260
  H    -16.677420    3.478010    9.303850
  H    -17.946070    1.393930    9.631370
  C    -21.633580    3.408150   11.894250
  C    -22.708820    3.293620   12.443670
  H    -23.685810    3.169100   12.938160

 Total Charge           Charge          ....    0
 Multiplicity           Mult            ....    1
 Number of Electrons    NEL             ....   54
 Basis Dimension        Dim             ....  238

ORBITAL ENERGIES
----------------

  NO   OCC          E(Eh)            E(eV)
   0   2.0000     -10.237942      -278.5886
   1   2.0000     -10.209209      -277.8067
   2   2.0000     -10.209155      -277.8052
   3   2.0000     -10.206198      -277.7248
   4   2.0000     -10.202924      -277.6357
   5   2.0000     -10.200994      -277.5832
   6   2.0000     -10.198614      -277.5184
   7   2.0000     -10.197871      -277.4982
   8   2.0000      -0.862327       -23.4651
   9   2.0000      -0.786066       -21.3899
  10   2.0000      -0.742324       -20.1997
  11   2.0000      -0.741121       -20.1669
  12   2.0000      -0.621213       -16.9041
  13   2.0000      -0.614698       -16.7268
  14   2.0000      -0.548202       -14.9173
  15   2.0000      -0.516021       -14.0416
  16   2.0000      -0.481625       -13.1057
  17   2.0000      -0.459264       -12.4972
  18   2.0000      -0.448741       -12.2109
  19   2.0000      -0.412276       -11.2186
  20   2.0000      -0.380762       -10.3611
  21   2.0000      -0.368738       -10.0339
  22   2.0000      -0.351032        -9.5521
  23   2.0000      -0.314971        -8.5708
  24   2.0000      -0.288358        -7.8466
  25   2.0000      -0.253748        -6.9048
  26   2.0000      -0.252464        -6.8699
  27   0.0000      -0.042858        -1.1662
  28   0.0000      -0.029020        -0.7897
  29   0.0000      -0.008717        -0.2372
  30   0.0000       0.004216         0.1147
  31   0.0000       0.008882         0.2417

MULLIKEN ATOMIC CHARGES
-----------------------
   0 C :    0.933962
   1 C :    0.441285
   2 C :    0.289735
   3 C :    0.435134
   4 C :    0.900848
   5 C :    0.875301
   6 H :   -0.985313
   7 H :   -0.976590
   8 H :   -0.815429
   9 H :   -0.717157
  10 H :   -0.822612
  11 C :    0.352274
  12 C :    0.823096
  13 H :   -0.734534
Sum of atomic charges:   -0.0000000

LOEWDIN ATOMIC CHARGES
----------------------
   0 C :   -0.150988
   1 C :   -0.242633
   2 C :   -0.328795
   3 C :   -0.240312
   4 C :   -0.125494
   5 C :   -0.738679
   6 H :    0.304953
   7 H :    0.301511
   8 H :    0.297548
   9 H :    0.307602
  10 H :    0.295961
  11 C :   -0.040680
  12 C :    0.195028
  13 H :    0.164978

  Mayer bond orders larger than 0.1
B(  0-C ,  1-C ) :   1.4046 B(  0-C ,  2-C ) :  -0.2837 B(  0-C ,  3-C ) :   0.1902
B(  0-C ,  4-C ) :  -0.3744 B(  0-C ,  5-C ) :   0.2868 B(  0-C ,  6-H ) :  -0.5642
B(  0-C , 10-H ) :   0.1906 B(  0-C , 11-C ) :  -0.3891 B(  0-C , 13-H ) :  -0.1097
B(  1-C ,  2-C ) :   1.6090 B(  1-C ,  4-C ) :   0.1851 B(  1-C ,  5-C ) :  -0.6311
B(  1-C ,  6-H ) :   0.7108 B(  1-C ,  8-H ) :  -0.1480 B(  1-C ,  9-H ) :   0.2605
B(  1-C , 10-H ) :  -0.3278 B(  2-C ,  3-C ) :   1.6698 B(  2-C ,  4-C ) :  -0.2418
B(  2-C ,  6-H ) :  -0.1051 B(  2-C ,  8-H ) :   0.4712 B(  2-C ,  9-H ) :  -0.1693
B(  2-C , 10-H ) :   0.4310 B(  3-C ,  4-C ) :   1.4353 B(  3-C ,  5-C ) :  -0.6794
B(  3-C ,  7-H ) :   0.6060 B(  3-C ,  8-H ) :  -0.3443 B(  3-C ,  9-H ) :   0.2792
B(  3-C , 10-H ) :  -0.1404 B(  3-C , 12-C ) :  -0.1512 B(  4-C ,  5-C ) :   0.1316
B(  4-C ,  7-H ) :  -0.3970 B(  4-C ,  8-H ) :   0.1631 B(  4-C , 11-C ) :  -0.6642
B(  4-C , 12-C ) :   0.2811 B(  5-C ,  6-H ) :   0.2123 B(  5-C , 11-C ) :   1.7160
B(  5-C , 12-C ) :   0.3770 B(  5-C , 13-H ) :   0.2205 B(  6-H , 11-C ) :  -0.4045
B(  6-H , 12-C ) :   0.1625 B(  7-H , 11-C ) :  -0.3207 B(  7-H , 12-C ) :   0.1097
B( 11-C , 12-C ) :   1.8801 B( 11-C , 13-H ) :   0.6205 B( 12-C , 13-H ) :  -0.5403

FINAL SINGLE POINT ENERGY      -308.211628306554

DIPOLE MOMENT
-------------
                                X             Y             Z
Electronic contribution:     -2.02464       0.06029       1.08371
Nuclear contribution   :      2.26760      -0.09449      -1.22402
                        -----------------------------------------
Total Dipole Moment    :      0.24296      -0.03419      -0.14031
                        -----------------------------------------
Magnitude (a.u.)       :      0.28264
Magnitude (Debye)      :      0.71840

CHEMICAL SHIELDING SUMMARY (ppm)
--------------------------

  Nucleus  Element    Isotropic     Anisotropy
  -------  -------  ------------   ------------
      0       C           54.943        173.320
      1       C           60.186        171.307
      2       C           61.541        176.089
      3       C           58.862        172.426
      4       C           56.060        175.030
      5       C           60.291        148.518
      6       H           23.942          7.183
      7       H           23.984          6.663
      8       H           23.832          5.464
      9       H           23.531          4.812
     10       H           23.979          5.431
     11       C          111.775        268.564
     12       C          120.134        163.365
     13       H           27.964         11.824

                             ****ORCA TERMINATED NORMALLY****
TOTAL RUN TIME: 0 days 0 hours 11 minutes 50 seconds 443 msec
