                         Program Version 4.0.0.2 - RELEASE -
|  1> !cc-pvdz BP86 NMR
|  2>
|  3> *xyzfile 0 1 guess.xyz
|  4>
|  5>
|  6>                          ****END OF INPUT****

CARTESIAN COORDINATES (ANGSTROEM)
---------------------------------
  C    -19.618150    2.348620   10.603840
  C    -18.329480    2.331010    9.979460
  C    -17.582080    3.479600    9.795850
  C    -18.130020    4.655620   10.318010
  C    -19.399070    4.659850   10.991880
  C    -20.192140    3.511720   11.172310
  H    -20.162190    1.411430   10.604200
  H    -19.729270    5.634250   11.360510
  H    -17.546410    5.564780   10.193020
  H    -16.626760    3.473280    9.267130
  H    -17.897310    1.391470    9.620750
  N    -21.454830    3.498080   11.785030
  H    -21.984110    2.648280   11.959740
  H    -21.888850    4.304090   12.235440

 Total Charge           Charge          ....    0
 Multiplicity           Mult            ....    1
 Number of Electrons    NEL             ....   50
 Basis Dimension        Dim             ....  133

ORBITAL ENERGIES
----------------

  NO   OCC          E(Eh)            E(eV)
   0   2.0000     -14.028559      -381.7365
   1   2.0000      -9.957263      -270.9509
   2   2.0000      -9.908298      -269.6185
   3   2.0000      -9.906597      -269.5722
   4   2.0000      -9.906546      -269.5708
   5   2.0000      -9.905160      -269.5331
   6   2.0000      -9.895266      -269.2639
   7   2.0000      -0.830450       -22.5977
   8   2.0000      -0.751013       -20.4361
   9   2.0000      -0.660366       -17.9695
  10   2.0000      -0.654504       -17.8100
  11   2.0000      -0.542691       -14.7674
  12   2.0000      -0.536361       -14.5951
  13   2.0000      -0.470246       -12.7960
  14   2.0000      -0.455254       -12.3881
  15   2.0000      -0.426016       -11.5925
  16   2.0000      -0.383492       -10.4353
  17   2.0000      -0.372790       -10.1441
  18   2.0000      -0.348667        -9.4877
  19   2.0000      -0.331614        -9.0237
  20   2.0000      -0.309798        -8.4300
  21   2.0000      -0.285323        -7.7640
  22   2.0000      -0.267464        -7.2781
  23   2.0000      -0.207602        -5.6491
  24   2.0000      -0.173824        -4.7300
  25   0.0000      -0.030992        -0.8433
  26   0.0000      -0.008030        -0.2185
  27   0.0000       0.034303         0.9334
  28   0.0000       0.051980         1.4144
  29   0.0000       0.074308         2.0220

MULLIKEN ATOMIC CHARGES
-----------------------
   0 C :    0.019776
   1 C :    0.020805
   2 C :    0.004293
   3 C :    0.015537
   4 C :    0.023594
   5 C :    0.013113
   6 H :   -0.033823
   7 H :   -0.033837
   8 H :   -0.023211
   9 H :   -0.029003
  10 H :   -0.025144
  11 N :   -0.133656
  12 H :    0.090497
  13 H :    0.091057
Sum of atomic charges:   -0.0000000

LOEWDIN ATOMIC CHARGES
----------------------
   0 C :   -0.058061
   1 C :   -0.029760
   2 C :   -0.065220
   3 C :   -0.026069
   4 C :   -0.060426
   5 C :   -0.050891
   6 H :    0.017268
   7 H :    0.019169
   8 H :    0.025679
   9 H :    0.026329
  10 H :    0.027197
  11 N :    0.058309
  12 H :    0.057757
  13 H :    0.058720

  Mayer bond orders larger than 0.1
B(  0-C ,  1-C ) :   1.4832 B(  0-C ,  5-C ) :   1.3332 B(  0-C ,  6-H ) :   0.9274
B(  1-C ,  2-C ) :   1.4645 B(  1-C , 10-H ) :   0.9300 B(  2-C ,  3-C ) :   1.4498
B(  2-C ,  9-H ) :   0.9355 B(  3-C ,  4-C ) :   1.4790 B(  3-C ,  8-H ) :   0.9326
B(  4-C ,  5-C ) :   1.3393 B(  4-C ,  7-H ) :   0.9282 B(  5-C , 11-N ) :   1.2309
B( 11-N , 12-H ) :   0.9644 B( 11-N , 13-H ) :   0.9646

FINAL SINGLE POINT ENERGY      -287.611068125822

DIPOLE MOMENT
-------------
                                X             Y             Z
Electronic contribution:     -0.06183       0.03626       0.07752
Nuclear contribution   :     -0.67968      -0.04939       0.36360
                        -----------------------------------------
Total Dipole Moment    :     -0.74152      -0.01313       0.44111
                        -----------------------------------------
Magnitude (a.u.)       :      0.86290
Magnitude (Debye)      :      2.19332

CHEMICAL SHIELDING SUMMARY (ppm)
--------------------------

  Nucleus  Element    Isotropic     Anisotropy
  -------  -------  ------------   ------------
      0       C           82.423        130.512
      1       C           64.793        160.823
      2       C           75.551        155.724
      3       C           63.268        163.341
      4       C           83.488        131.491
      5       C           53.679        149.989
      6       H           25.310          5.762
      7       H           25.196          5.445
      8       H           24.273          4.735
      9       H           24.569          3.679
     10       H           24.299          4.535
     11       N          200.211         68.404
     12       H           28.370         11.712
     13       H           28.387         11.926

                             ****ORCA TERMINATED NORMALLY****
TOTAL RUN TIME: 0 days 0 hours 0 minutes 55 seconds 603 msec
