                         Program Version 4.0.0.2 - RELEASE -
|  1> !cc-pvdz OLYP NMR
|  2>
|  3> *xyzfile 0 1 guess.xyz
|  4>
|  5>
|  6>                          ****END OF INPUT****

CARTESIAN COORDINATES (ANGSTROEM)
---------------------------------
  C    -16.991890    1.956390    9.165270
  C    -15.904190    1.392230    8.492230
  C    -14.806770    2.221640    8.088330
  C    -14.715920    3.623870    8.317250
  C    -15.852940    4.151090    9.008520
  C    -16.958470    3.318820    9.416050
  O    -18.047700    3.840330   10.081500
  H    -17.916150    4.792320   10.200820
  H    -17.838070    1.342650    9.481790
  H    -15.900230    5.197230    9.238780
  H    -15.920200    0.314970    8.288560
  H    -13.994780    1.701160    7.566340
  N    -13.592790    4.385730    7.886770
  H    -12.856820    3.847080    7.400490
  H    -13.302750    5.365620    7.929680

 Total Charge           Charge          ....    0
 Multiplicity           Mult            ....    1
 Number of Electrons    NEL             ....   58
 Basis Dimension        Dim             ....  147

ORBITAL ENERGIES
----------------

  NO   OCC          E(Eh)            E(eV)
   0   2.0000     -18.792049      -511.3577
   1   2.0000     -14.024444      -381.6245
   2   2.0000      -9.963282      -271.1147
   3   2.0000      -9.962021      -271.0804
   4   2.0000      -9.909779      -269.6588
   5   2.0000      -9.902919      -269.4721
   6   2.0000      -9.900063      -269.3944
   7   2.0000      -9.888923      -269.0913
   8   2.0000      -0.961092       -26.1526
   9   2.0000      -0.820667       -22.3315
  10   2.0000      -0.743039       -20.2191
  11   2.0000      -0.657885       -17.9020
  12   2.0000      -0.645872       -17.5751
  13   2.0000      -0.553943       -15.0735
  14   2.0000      -0.530444       -14.4341
  15   2.0000      -0.478780       -13.0283
  16   2.0000      -0.457915       -12.4605
  17   2.0000      -0.421305       -11.4643
  18   2.0000      -0.411710       -11.2032
  19   2.0000      -0.381799       -10.3893
  20   2.0000      -0.357246        -9.7212
  21   2.0000      -0.339908        -9.2494
  22   2.0000      -0.319892        -8.7047
  23   2.0000      -0.296945        -8.0803
  24   2.0000      -0.293948        -7.9987
  25   2.0000      -0.293651        -7.9906
  26   2.0000      -0.240222        -6.5368
  27   2.0000      -0.178680        -4.8621
  28   2.0000      -0.159468        -4.3393
  29   0.0000      -0.013735        -0.3737
  30   0.0000       0.006699         0.1823
  31   0.0000       0.021618         0.5883
  32   0.0000       0.030245         0.8230
  33   0.0000       0.053293         1.4502

MULLIKEN ATOMIC CHARGES
-----------------------
   0 C :    0.050317
   1 C :    0.058668
   2 C :    0.037545
   3 C :    0.049771
   4 C :    0.041088
   5 C :    0.071209
   6 O :   -0.175128
   7 H :    0.120476
   8 H :   -0.056001
   9 H :   -0.071791
  10 H :   -0.047983
  11 H :   -0.060035
  12 N :   -0.154574
  13 H :    0.071307
  14 H :    0.065130
Sum of atomic charges:   -0.0000000

LOEWDIN ATOMIC CHARGES
----------------------
   0 C :   -0.072232
   1 C :   -0.017449
   2 C :   -0.073867
   3 C :   -0.031869
   4 C :   -0.096368
   5 C :   -0.042604
   6 O :    0.071472
   7 H :    0.049442
   8 H :    0.020691
   9 H :    0.001932
  10 H :    0.024722
  11 H :    0.010566
  12 N :    0.045132
  13 H :    0.056396
  14 H :    0.054035

  Mayer bond orders larger than 0.1
B(  0-C ,  1-C ) :   1.4536 B(  0-C ,  5-C ) :   1.3821 B(  0-C ,  8-H ) :   0.9252
B(  1-C ,  2-C ) :   1.4622 B(  1-C , 10-H ) :   0.9312 B(  2-C ,  3-C ) :   1.3110
B(  2-C , 11-H ) :   0.9229 B(  3-C ,  4-C ) :   1.3273 B(  3-C , 12-N ) :   1.1632
B(  4-C ,  5-C ) :   1.3500 B(  4-C ,  9-H ) :   0.9151 B(  5-C ,  6-O ) :   1.1612
B(  6-O ,  7-H ) :   1.0081 B( 12-N , 13-H ) :   0.9762 B( 12-N , 14-H ) :   0.9725

FINAL SINGLE POINT ENERGY      -362.716609861921

DIPOLE MOMENT
-------------
                                X             Y             Z
Electronic contribution:     -2.31521       0.51093       1.30300
Nuclear contribution   :      3.11414       0.37497      -1.53542
                        -----------------------------------------
Total Dipole Moment    :      0.79893       0.88590      -0.23241
                        -----------------------------------------
Magnitude (a.u.)       :      1.21537
Magnitude (Debye)      :      3.08923

CHEMICAL SHIELDING SUMMARY (ppm)
--------------------------

  Nucleus  Element    Isotropic     Anisotropy
  -------  -------  ------------   ------------
      0       C           91.332        123.893
      1       C           65.009        156.767
      2       C           89.422        115.837
      3       C           50.621        138.863
      4       C           96.177         91.048
      5       C           40.040        122.338
      6       O          209.360         61.717
      7       H           28.411         11.197
      8       H           25.238          3.889
      9       H           26.484          6.040
     10       H           24.335          4.044
     11       H           25.727          4.918
     12       N          198.616         65.047
     13       H           28.614         12.166
     14       H           27.785         12.042

                             ****ORCA TERMINATED NORMALLY****
TOTAL RUN TIME: 0 days 0 hours 1 minutes 3 seconds 48 msec
