                         Program Version 4.0.0.2 - RELEASE -
|  1> !cc-pvdz BP86 NMR
|  2>
|  3> *xyzfile 0 1 guess.xyz
|  4>
|  5>
|  6>                          ****END OF INPUT****

CARTESIAN COORDINATES (ANGSTROEM)
---------------------------------
  C    -15.339890    3.494010    8.628400
  C    -14.234270    3.074250    7.788380
  C    -13.123110    3.850910    7.512750
  C    -13.144620    5.166900    7.957430
  C    -14.331070    5.759140    8.531860
  C    -15.443270    4.890350    8.944420
  O    -16.542820    5.467840    9.616940
  C    -11.932280    3.274350    6.793740
  H    -11.189450    4.041220    6.548010
  H    -12.243430    2.806140    5.851910
  H    -11.442800    2.519560    7.420840
  C    -16.215620    2.306650    9.123610
  C    -14.249340    7.338540    8.543720
  C    -15.607800    8.025720    8.336420
  H    -16.153090    7.580280    7.498920
  H    -15.479510    9.093160    8.106900
  H    -16.226050    7.988170    9.234550
  C    -13.353920    7.903490    7.371290
  H    -13.602230    7.431910    6.412730
  H    -12.279510    7.766410    7.552900
  H    -13.480810    8.986570    7.242150
  C    -13.614460    7.855460    9.849940
  H    -14.237440    7.621960   10.717140
  H    -13.491130    8.947150    9.815460
  H    -12.619400    7.427600   10.024110
  C    -16.860110    2.522390   10.503570
  H    -16.176320    3.014800   11.201360
  H    -17.146670    1.564040   10.956800
  H    -17.790950    3.088670   10.436560
  C    -17.320260    1.986610    8.100420
  H    -18.040720    2.805600    8.012830
  H    -17.872220    1.089880    8.407750
  H    -16.914790    1.788770    7.100760
  C    -15.361560    0.999670    9.294450
  H    -14.424420    1.198370    9.829310
  H    -15.116880    0.528010    8.334590
  H    -15.902280    0.229850    9.855150
  H    -14.203540    2.061900    7.371350
  H    -12.230440    5.735870    7.783580
  H    -17.341760    5.020960    9.940660

 Total Charge           Charge          ....    0
 Multiplicity           Mult            ....    1
 Number of Electrons    NEL             ....  122
 Basis Dimension        Dim             ....  344

ORBITAL ENERGIES
----------------

  NO   OCC          E(Eh)            E(eV)
   0   2.0000     -18.803851      -511.6788
   1   2.0000      -9.982034      -271.6250
   2   2.0000      -9.938998      -270.4539
   3   2.0000      -9.928285      -270.1624
   4   2.0000      -9.923891      -270.0428
   5   2.0000      -9.922284      -269.9991
   6   2.0000      -9.909675      -269.6560
   7   2.0000      -9.905792      -269.5503
   8   2.0000      -9.904723      -269.5212
   9   2.0000      -9.904244      -269.5082
  10   2.0000      -9.903311      -269.4828
  11   2.0000      -9.902773      -269.4682
  12   2.0000      -9.902147      -269.4511
  13   2.0000      -9.895097      -269.2593
  14   2.0000      -9.892015      -269.1754
  15   2.0000      -9.886183      -269.0167
  16   2.0000      -0.943753       -25.6808
  17   2.0000      -0.773156       -21.0387
  18   2.0000      -0.747302       -20.3351
  19   2.0000      -0.727604       -19.7991
  20   2.0000      -0.683682       -18.6039
  21   2.0000      -0.649057       -17.6617
  22   2.0000      -0.625396       -17.0179
  23   2.0000      -0.621384       -16.9087
  24   2.0000      -0.614812       -16.7299
  25   2.0000      -0.608601       -16.5609
  26   2.0000      -0.602856       -16.4045
  27   2.0000      -0.555250       -15.1091
  28   2.0000      -0.541821       -14.7437
  29   2.0000      -0.508551       -13.8384
  30   2.0000      -0.468845       -12.7579
  31   2.0000      -0.466634       -12.6978
  32   2.0000      -0.423296       -11.5185
  33   2.0000      -0.413821       -11.2606
  34   2.0000      -0.400601       -10.9009
  35   2.0000      -0.398501       -10.8438
  36   2.0000      -0.389692       -10.6041
  37   2.0000      -0.384794       -10.4708
  38   2.0000      -0.376866       -10.2550
  39   2.0000      -0.371813       -10.1176
  40   2.0000      -0.369843       -10.0639
  41   2.0000      -0.356954        -9.7132
  42   2.0000      -0.344647        -9.3783
  43   2.0000      -0.343142        -9.3374
  44   2.0000      -0.337327        -9.1791
  45   2.0000      -0.331900        -9.0315
  46   2.0000      -0.328759        -8.9460
  47   2.0000      -0.322900        -8.7866
  48   2.0000      -0.319525        -8.6947
  49   2.0000      -0.311038        -8.4638
  50   2.0000      -0.306481        -8.3398
  51   2.0000      -0.299997        -8.1633
  52   2.0000      -0.296896        -8.0790
  53   2.0000      -0.290735        -7.9113
  54   2.0000      -0.283609        -7.7174
  55   2.0000      -0.282289        -7.6815
  56   2.0000      -0.270327        -7.3560
  57   2.0000      -0.263607        -7.1731
  58   2.0000      -0.253852        -6.9077
  59   2.0000      -0.197518        -5.3747
  60   2.0000      -0.182097        -4.9551
  61   0.0000      -0.043646        -1.1877
  62   0.0000      -0.015566        -0.4236
  63   0.0000       0.008943         0.2434
  64   0.0000       0.040343         1.0978
  65   0.0000       0.048965         1.3324

MULLIKEN ATOMIC CHARGES
-----------------------
   0 C :    0.098706
   1 C :    0.017247
   2 C :   -0.116837
   3 C :    0.035426
   4 C :    0.082441
   5 C :   -0.045916
   6 O :   -0.204359
   7 C :    0.017719
   8 H :    0.027043
   9 H :    0.047123
  10 H :    0.054009
  11 C :   -0.339041
  12 C :   -0.312251
  13 C :    0.045932
  14 H :    0.021112
  15 H :    0.012399
  16 H :    0.023998
  17 C :    0.013594
  18 H :    0.028024
  19 H :    0.022295
  20 H :    0.021183
  21 C :    0.042379
  22 H :    0.026238
  23 H :    0.019595
  24 H :    0.017571
  25 C :    0.024076
  26 H :    0.042773
  27 H :    0.026844
  28 H :   -0.003158
  29 C :    0.051891
  30 H :    0.021017
  31 H :    0.017471
  32 H :    0.026437
  33 C :    0.032066
  34 H :    0.034769
  35 H :    0.022432
  36 H :    0.017106
  37 H :   -0.062879
  38 H :   -0.056395
  39 H :    0.149916
Sum of atomic charges:    0.0000000

LOEWDIN ATOMIC CHARGES
----------------------
   0 C :   -0.040139
   1 C :   -0.023570
   2 C :   -0.064560
   3 C :   -0.024566
   4 C :   -0.014423
   5 C :   -0.039023
   6 O :    0.041668
   7 C :   -0.064389
   8 H :    0.033688
   9 H :    0.039162
  10 H :    0.040022
  11 C :   -0.057543
  12 C :   -0.049143
  13 C :   -0.061921
  14 H :    0.027509
  15 H :    0.025477
  16 H :    0.022653
  17 C :   -0.060347
  18 H :    0.027541
  19 H :    0.021386
  20 H :    0.027151
  21 C :   -0.058770
  22 H :    0.027132
  23 H :    0.027185
  24 H :    0.025392
  25 C :   -0.062166
  26 H :    0.033154
  27 H :    0.033933
  28 H :    0.014600
  29 C :   -0.056179
  30 H :    0.024288
  31 H :    0.026966
  32 H :    0.029532
  33 C :   -0.054495
  34 H :    0.030977
  35 H :    0.023904
  36 H :    0.025187
  37 H :    0.023088
  38 H :    0.024551
  39 H :    0.055090

  Mayer bond orders larger than 0.1
B(  0-C ,  1-C ) :   1.3637 B(  0-C ,  5-C ) :   1.2698 B(  0-C , 11-C ) :   0.9535
B(  1-C ,  2-C ) :   1.4706 B(  1-C , 37-H ) :   0.9008 B(  2-C ,  3-C ) :   1.4380
B(  2-C ,  7-C ) :   1.1148 B(  3-C ,  4-C ) :   1.4055 B(  3-C , 38-H ) :   0.8964
B(  4-C ,  5-C ) :   1.2747 B(  4-C , 12-C ) :   0.9501 B(  5-C ,  6-O ) :   1.1990
B(  6-O , 39-H ) :   0.9608 B(  7-C ,  8-H ) :   0.9408 B(  7-C ,  9-H ) :   0.9417
B(  7-C , 10-H ) :   0.9405 B( 11-C , 25-C ) :   1.0698 B( 11-C , 29-C ) :   1.0430
B( 11-C , 33-C ) :   1.0590 B( 12-C , 13-C ) :   1.0690 B( 12-C , 17-C ) :   1.0526
B( 12-C , 21-C ) :   1.0440 B( 13-C , 14-H ) :   0.9556 B( 13-C , 15-H ) :   0.9479
B( 13-C , 16-H ) :   0.9506 B( 17-C , 18-H ) :   0.9569 B( 17-C , 19-H ) :   0.9504
B( 17-C , 20-H ) :   0.9500 B( 21-C , 22-H ) :   0.9571 B( 21-C , 23-H ) :   0.9560
B( 21-C , 24-H ) :   0.9548 B( 25-C , 26-H ) :   0.9546 B( 25-C , 27-H ) :   0.9477
B( 25-C , 28-H ) :   0.9420 B( 29-C , 30-H ) :   0.9540 B( 29-C , 31-H ) :   0.9555
B( 29-C , 32-H ) :   0.9569 B( 33-C , 34-H ) :   0.9571 B( 33-C , 35-H ) :   0.9510
B( 33-C , 36-H ) :   0.9472

FINAL SINGLE POINT ENERGY      -661.248783361235

DIPOLE MOMENT
-------------
                                X             Y             Z
Electronic contribution:     -0.48935       0.26092       0.27801
Nuclear contribution   :      0.19172      -0.78220      -0.15775
                        -----------------------------------------
Total Dipole Moment    :     -0.29763      -0.52128       0.12026
                        -----------------------------------------
Magnitude (a.u.)       :      0.61220
Magnitude (Debye)      :      1.55608

CHEMICAL SHIELDING SUMMARY (ppm)
--------------------------

  Nucleus  Element    Isotropic     Anisotropy
  -------  -------  ------------   ------------
      0       C           53.440        146.590
      1       C           62.638        144.254
      2       C           65.497        162.570
      3       C           59.640        135.933
      4       C           48.669        147.325
      5       C           36.623         89.199
      6       O          213.244         75.341
      7       C          170.634         36.440
      8       H           29.660          6.985
      9       H           29.248          7.900
     10       H           28.900          8.227
     11       C          149.515         20.033
     12       C          145.945         22.429
     13       C          160.613         40.772
     14       H           29.891          6.834
     15       H           30.388          8.180
     16       H           29.358          7.264
     17       C          150.715         50.170
     18       H           29.946          6.835
     19       H           29.500          7.297
     20       H           30.368          7.793
     21       C          159.309         42.053
     22       H           29.885          7.489
     23       H           30.071          8.784
     24       H           30.104          6.967
     25       C          160.087         43.267
     26       H           29.596          6.532
     27       H           30.049          8.030
     28       H           30.280          7.190
     29       C          157.952         42.521
     30       H           30.145          7.316
     31       H           29.960          8.673
     32       H           29.992          6.947
     33       C          150.737         49.241
     34       H           29.868          6.876
     35       H           29.426          7.500
     36       H           30.544          8.006
     37       H           24.166         12.328
     38       H           23.982         11.889
     39       H           26.753         11.365

                             ****ORCA TERMINATED NORMALLY****
TOTAL RUN TIME: 0 days 0 hours 14 minutes 16 seconds 493 msec
