                         Program Version 4.0.0.2 - RELEASE -
|  1> !cc-pvdz BP86 NMR
|  2>
|  3> *xyzfile 0 1 guess.xyz
|  4>
|  5>
|  6>                          ****END OF INPUT****

CARTESIAN COORDINATES (ANGSTROEM)
---------------------------------
  C    -11.257270    3.613040    6.717770
  C    -11.216050    5.157860    6.948300
  H    -10.579860    3.120280    6.015910
  H    -12.269990    3.373740    6.341600
  H    -11.219800    3.069430    7.675670
  C    -10.074170    6.170000    6.610600
  H     -9.331790    5.953500    5.838090
  H     -9.551660    6.511030    7.518280
  H    -10.570820    7.093570    6.255700
  O    -12.189840    5.631450    7.520470

 Total Charge           Charge          ....    0
 Multiplicity           Mult            ....    1
 Number of Electrons    NEL             ....   32
 Basis Dimension        Dim             ....   86

ORBITAL ENERGIES
----------------

  NO   OCC          E(Eh)            E(eV)
   0   2.0000     -18.770409      -510.7688
   1   2.0000     -10.007817      -272.3266
   2   2.0000      -9.922007      -269.9915
   3   2.0000      -9.921736      -269.9842
   4   2.0000      -0.949020       -25.8242
   5   2.0000      -0.675087       -18.3701
   6   2.0000      -0.646605       -17.5950
   7   2.0000      -0.482844       -13.1388
   8   2.0000      -0.412922       -11.2362
   9   2.0000      -0.401154       -10.9159
  10   2.0000      -0.385230       -10.4827
  11   2.0000      -0.357958        -9.7405
  12   2.0000      -0.342793        -9.3279
  13   2.0000      -0.330364        -8.9897
  14   2.0000      -0.300025        -8.1641
  15   2.0000      -0.201204        -5.4750
  16   0.0000      -0.061563        -1.6752
  17   0.0000       0.045007         1.2247
  18   0.0000       0.080215         2.1828
  19   0.0000       0.091341         2.4855
  20   0.0000       0.111239         3.0270

MULLIKEN ATOMIC CHARGES
-----------------------
   0 C :   -0.046869
   1 C :   -0.046483
   2 H :    0.034699
   3 H :    0.060211
   4 H :    0.069875
   5 C :   -0.047598
   6 H :    0.035519
   7 H :    0.069353
   8 H :    0.059896
   9 O :   -0.188602
Sum of atomic charges:    0.0000000

LOEWDIN ATOMIC CHARGES
----------------------
   0 C :   -0.106351
   1 C :   -0.047980
   2 H :    0.027914
   3 H :    0.053819
   4 H :    0.054662
   5 C :   -0.106685
   6 H :    0.028460
   7 H :    0.054203
   8 H :    0.053336
   9 O :   -0.011377

  Mayer bond orders larger than 0.1
B(  0-C ,  1-C ) :   1.0221 B(  0-C ,  2-H ) :   0.9545 B(  0-C ,  3-H ) :   0.9465
B(  0-C ,  4-H ) :   0.9447 B(  1-C ,  5-C ) :   1.0237 B(  1-C ,  9-O ) :   2.1602
B(  5-C ,  6-H ) :   0.9541 B(  5-C ,  7-H ) :   0.9442 B(  5-C ,  8-H ) :   0.9473

FINAL SINGLE POINT ENERGY      -193.148608160399

DIPOLE MOMENT
-------------
                                X             Y             Z
Electronic contribution:     -2.68123       1.29704       1.56214
Nuclear contribution   :      3.38454      -1.64148      -1.93575
                        -----------------------------------------
Total Dipole Moment    :      0.70331      -0.34444      -0.37361
                        -----------------------------------------
Magnitude (a.u.)       :      0.86768
Magnitude (Debye)      :      2.20547

CHEMICAL SHIELDING SUMMARY (ppm)
--------------------------

  Nucleus  Element    Isotropic     Anisotropy
  -------  -------  ------------   ------------
      0       C          163.381         50.675
      1       C           -7.055        155.318
      2       H           29.354          5.347
      3       H           29.313          5.492
      4       H           29.219          5.714
      5       C          163.039         51.473
      6       H           29.329          5.386
      7       H           29.185          5.640
      8       H           29.284          5.518
      9       O         -345.361       -880.739

                             ****ORCA TERMINATED NORMALLY****
TOTAL RUN TIME: 0 days 0 hours 0 minutes 16 seconds 833 msec
