                         Program Version 4.0.0.2 - RELEASE -
|  1> !aug-cc-pVDZ B3LYP NMR
|  2>
|  3> *xyzfile 0 1 guess.xyz
|  4>
|  5>
|  6>                          ****END OF INPUT****

CARTESIAN COORDINATES (ANGSTROEM)
---------------------------------
  C    -19.459240    2.355020   10.503830
  C    -18.168570    2.305240    9.911280
  C    -17.450500    3.475670    9.707430
  C    -17.975450    4.672240   10.234680
  C    -19.227980    4.703560   10.917320
  C    -19.964430    3.534860   11.077050
  H    -20.910000    3.521560   11.643470
  H    -20.085440    1.466610   10.475890
  H    -19.627990    5.651330   11.294580
  H    -17.393840    5.587990   10.142150
  H    -16.507880    3.462220    9.135840
  H    -17.736180    1.338680    9.635030

 Total Charge           Charge          ....    0
 Multiplicity           Mult            ....    1
 Number of Electrons    NEL             ....   42
 Basis Dimension        Dim             ....  192

ORBITAL ENERGIES
----------------

  NO   OCC          E(Eh)            E(eV)
   0   2.0000     -10.194291      -277.4008
   1   2.0000     -10.193844      -277.3886
   2   2.0000     -10.193510      -277.3795
   3   2.0000     -10.193268      -277.3729
   4   2.0000     -10.192900      -277.3629
   5   2.0000     -10.192545      -277.3533
   6   2.0000      -0.851724       -23.1766
   7   2.0000      -0.751254       -20.4427
   8   2.0000      -0.739412       -20.1204
   9   2.0000      -0.604614       -16.4524
  10   2.0000      -0.599361       -16.3094
  11   2.0000      -0.519876       -14.1466
  12   2.0000      -0.463297       -12.6069
  13   2.0000      -0.444984       -12.1086
  14   2.0000      -0.427476       -11.6322
  15   2.0000      -0.413520       -11.2524
  16   2.0000      -0.366186        -9.9644
  17   2.0000      -0.347785        -9.4637
  18   2.0000      -0.344198        -9.3661
  19   2.0000      -0.258489        -7.0338
  20   2.0000      -0.248214        -6.7542
  21   0.0000      -0.020798        -0.5659
  22   0.0000      -0.015480        -0.4212
  23   0.0000      -0.007448        -0.2027
  24   0.0000       0.008488         0.2310
  25   0.0000       0.009770         0.2659

MULLIKEN ATOMIC CHARGES
-----------------------
   0 C :    0.813085
   1 C :    0.707988
   2 C :    0.498421
   3 C :    0.884642
   4 C :    0.770583
   5 C :    0.540498
   6 H :   -0.653882
   7 H :   -0.729690
   8 H :   -0.726323
   9 H :   -0.741749
  10 H :   -0.651477
  11 H :   -0.712097
Sum of atomic charges:   -0.0000000

LOEWDIN ATOMIC CHARGES
----------------------
   0 C :   -0.284119
   1 C :   -0.303101
   2 C :   -0.313287
   3 C :   -0.273683
   4 C :   -0.293694
   5 C :   -0.314509
   6 H :    0.306799
   7 H :    0.288151
   8 H :    0.296408
   9 H :    0.286701
  10 H :    0.307018
  11 H :    0.297317

  Mayer bond orders larger than 0.1
B(  0-C ,  1-C ) :   1.2975 B(  0-C ,  2-C ) :  -0.1865 B(  0-C ,  3-C ) :   0.2283
B(  0-C ,  4-C ) :  -0.1756 B(  0-C ,  5-C ) :   1.4133 B(  0-C ,  6-H ) :   0.1265
B(  1-C ,  2-C ) :   1.5191 B(  1-C ,  3-C ) :  -0.1957 B(  1-C ,  4-C ) :   0.2547
B(  1-C ,  5-C ) :  -0.1930 B(  1-C ,  7-H ) :   0.1140 B(  1-C , 10-H ) :   0.1385
B(  1-C , 11-H ) :   0.1006 B(  2-C ,  3-C ) :   1.3994 B(  2-C ,  4-C ) :  -0.2520
B(  2-C ,  5-C ) :   0.3651 B(  2-C ,  9-H ) :   0.1835 B(  2-C , 10-H ) :   0.1313
B(  2-C , 11-H ) :   0.1794 B(  3-C ,  4-C ) :   1.2864 B(  3-C ,  5-C ) :  -0.2493
B(  3-C ,  8-H ) :   0.1259 B(  3-C , 10-H ) :   0.1305 B(  4-C ,  5-C ) :   1.4582
B(  4-C ,  6-H ) :   0.1399 B(  4-C ,  9-H ) :   0.1348 B(  5-C ,  6-H ) :   0.1330
B(  5-C ,  7-H ) :   0.1350 B(  5-C ,  8-H ) :   0.1886

FINAL SINGLE POINT ENERGY      -232.114075480549

DIPOLE MOMENT
-------------
                                X             Y             Z
Electronic contribution:      0.01109       0.00864       0.01463
Nuclear contribution   :     -0.01312      -0.01575      -0.02132
                        -----------------------------------------
Total Dipole Moment    :     -0.00203      -0.00711      -0.00669
                        -----------------------------------------
Magnitude (a.u.)       :      0.00997
Magnitude (Debye)      :      0.02535

CHEMICAL SHIELDING SUMMARY (ppm)
--------------------------

  Nucleus  Element    Isotropic     Anisotropy
  -------  -------  ------------   ------------
      0       C           61.431        174.660
      1       C           61.807        171.747
      2       C           62.443        172.086
      3       C           61.476        175.127
      4       C           62.179        173.891
      5       C           62.822        172.595
      6       H           23.758          4.691
      7       H           24.087          5.177
      8       H           23.836          5.094
      9       H           23.996          5.308
     10       H           23.526          5.029
     11       H           23.852          5.090

                             ****ORCA TERMINATED NORMALLY****
TOTAL RUN TIME: 0 days 0 hours 8 minutes 2 seconds 939 msec
