                         Program Version 4.0.0.2 - RELEASE -
|  1> !cc-pvdz OLYP NMR
|  2>
|  3> *xyzfile 0 1 guess.xyz
|  4>
|  5>
|  6>                          ****END OF INPUT****

CARTESIAN COORDINATES (ANGSTROEM)
---------------------------------
  C    -19.678670    2.328430   10.630590
  C    -18.382700    2.323280    9.998670
  C    -17.642030    3.482090    9.827740
  C    -18.198270    4.640900   10.350130
  C    -19.481680    4.639740   11.028210
  C    -20.278100    3.476420   11.193920
  H    -20.203320    1.377980   10.636960
  H    -19.804310    5.609800   11.398980
  H    -17.616800    5.558600   10.229260
  H    -16.677420    3.478010    9.303850
  H    -17.946070    1.393930    9.631370
  C    -21.633580    3.408150   11.894250
  C    -22.708820    3.293620   12.443670
  H    -23.685810    3.169100   12.938160

 Total Charge           Charge          ....    0
 Multiplicity           Mult            ....    1
 Number of Electrons    NEL             ....   54
 Basis Dimension        Dim             ....  142

ORBITAL ENERGIES
----------------

  NO   OCC          E(Eh)            E(eV)
   0   2.0000      -9.960161      -271.0298
   1   2.0000      -9.932948      -270.2893
   2   2.0000      -9.929963      -270.2080
   3   2.0000      -9.928368      -270.1646
   4   2.0000      -9.927169      -270.1320
   5   2.0000      -9.925212      -270.0787
   6   2.0000      -9.922416      -270.0027
   7   2.0000      -9.919610      -269.9263
   8   2.0000      -0.782094       -21.2819
   9   2.0000      -0.709234       -19.2992
  10   2.0000      -0.668855       -18.2005
  11   2.0000      -0.664966       -18.0947
  12   2.0000      -0.555968       -15.1287
  13   2.0000      -0.549249       -14.9458
  14   2.0000      -0.488114       -13.2823
  15   2.0000      -0.456402       -12.4193
  16   2.0000      -0.423619       -11.5273
  17   2.0000      -0.401370       -10.9218
  18   2.0000      -0.392436       -10.6787
  19   2.0000      -0.357298        -9.7226
  20   2.0000      -0.330634        -8.9970
  21   2.0000      -0.316343        -8.6081
  22   2.0000      -0.299020        -8.1367
  23   2.0000      -0.270191        -7.3523
  24   2.0000      -0.242322        -6.5939
  25   2.0000      -0.217427        -5.9165
  26   2.0000      -0.215153        -5.8546
  27   0.0000      -0.054880        -1.4934
  28   0.0000      -0.041909        -1.1404
  29   0.0000       0.013049         0.3551
  30   0.0000       0.031956         0.8696
  31   0.0000       0.045486         1.2377

MULLIKEN ATOMIC CHARGES
-----------------------
   0 C :    0.052234
   1 C :    0.061130
   2 C :    0.053647
   3 C :    0.054205
   4 C :    0.046059
   5 C :   -0.128474
   6 H :   -0.060760
   7 H :   -0.065324
   8 H :   -0.043248
   9 H :   -0.047431
  10 H :   -0.047798
  11 C :    0.657134
  12 C :   -0.482114
  13 H :   -0.049258
Sum of atomic charges:    0.0000000

LOEWDIN ATOMIC CHARGES
----------------------
   0 C :    0.006315
   1 C :   -0.016731
   2 C :   -0.023610
   3 C :   -0.016911
   4 C :    0.005789
   5 C :   -0.054217
   6 H :    0.022882
   7 H :    0.021699
   8 H :    0.023847
   9 H :    0.027600
  10 H :    0.023112
  11 C :   -0.002436
  12 C :   -0.045554
  13 H :    0.028216

  Mayer bond orders larger than 0.1
B(  0-C ,  1-C ) :   1.4348 B(  0-C ,  5-C ) :   1.3873 B(  0-C ,  6-H ) :   0.9453
B(  1-C ,  2-C ) :   1.4407 B(  1-C , 10-H ) :   0.9365 B(  2-C ,  3-C ) :   1.4375
B(  2-C ,  9-H ) :   0.9430 B(  3-C ,  4-C ) :   1.4280 B(  3-C ,  8-H ) :   0.9381
B(  4-C ,  5-C ) :   1.3745 B(  4-C ,  7-H ) :   0.9494 B(  5-C , 11-C ) :   0.8305
B( 11-C , 12-C ) :   2.1175 B( 11-C , 13-H ) :  -0.1301 B( 12-C , 13-H ) :   1.1398

FINAL SINGLE POINT ENERGY      -308.294577267938

DIPOLE MOMENT
-------------
                                X             Y             Z
Electronic contribution:     -2.05173       0.06498       1.10018
Nuclear contribution   :      2.26760      -0.09449      -1.22402
                        -----------------------------------------
Total Dipole Moment    :      0.21586      -0.02951      -0.12384
                        -----------------------------------------
Magnitude (a.u.)       :      0.25061
Magnitude (Debye)      :      0.63700

CHEMICAL SHIELDING SUMMARY (ppm)
--------------------------

  Nucleus  Element    Isotropic     Anisotropy
  -------  -------  ------------   ------------
      0       C           61.096        165.175
      1       C           65.612        161.911
      2       C           67.395        166.556
      3       C           64.370        162.884
      4       C           62.297        166.086
      5       C           66.649        137.033
      6       H           24.140          6.824
      7       H           24.158          6.291
      8       H           23.992          5.158
      9       H           23.884          4.447
     10       H           24.129          5.143
     11       C          114.413        255.451
     12       C          120.804        159.619
     13       H           28.015         11.413

                             ****ORCA TERMINATED NORMALLY****
TOTAL RUN TIME: 0 days 0 hours 0 minutes 56 seconds 27 msec
