                         Program Version 4.0.0.2 - RELEASE -
|  1> !aug-cc-pVDZ B3LYP NMR
|  2>
|  3> *xyzfile 0 1 guess.xyz
|  4>
|  5>
|  6>                          ****END OF INPUT****

CARTESIAN COORDINATES (ANGSTROEM)
---------------------------------
  C    -19.529460    2.358330   10.578980
  C    -18.295990    2.311200    9.927040
  C    -17.540400    3.475150    9.773430
  C    -18.011570    4.692240   10.269410
  C    -19.243530    4.751880   10.923160
  C    -19.999560    3.581640   11.075830
  H    -20.106070    1.442490   10.690550
  H    -19.596550    5.707970   11.303890
  H    -17.417250    5.594980   10.145920
  H    -16.579500    3.433530    9.264640
  H    -17.922350    1.366540    9.537920
  N    -21.295720    3.637710   11.762600
  O    -21.676040    4.737710   12.189090
  O    -21.934990    2.581820   11.876410

 Total Charge           Charge          ....    0
 Multiplicity           Mult            ....    1
 Number of Electrons    NEL             ....   64
 Basis Dimension        Dim             ....  252

ORBITAL ENERGIES
----------------

  NO   OCC          E(Eh)            E(eV)
   0   2.0000     -19.188046      -522.1333
   1   2.0000     -19.187626      -522.1218
   2   2.0000     -14.574511      -396.5926
   3   2.0000     -10.262730      -279.2631
   4   2.0000     -10.226821      -278.2860
   5   2.0000     -10.226534      -278.2782
   6   2.0000     -10.223320      -278.1907
   7   2.0000     -10.220574      -278.1160
   8   2.0000     -10.220471      -278.1132
   9   2.0000      -1.228434       -33.4274
  10   2.0000      -1.057589       -28.7785
  11   2.0000      -0.899259       -24.4701
  12   2.0000      -0.817819       -22.2540
  13   2.0000      -0.782028       -21.2801
  14   2.0000      -0.713712       -19.4211
  15   2.0000      -0.639395       -17.3988
  16   2.0000      -0.608425       -16.5561
  17   2.0000      -0.570631       -15.5277
  18   2.0000      -0.537130       -14.6160
  19   2.0000      -0.523348       -14.2410
  20   2.0000      -0.518111       -14.0985
  21   2.0000      -0.479892       -13.0585
  22   2.0000      -0.473799       -12.8927
  23   2.0000      -0.453437       -12.3386
  24   2.0000      -0.399815       -10.8795
  25   2.0000      -0.395055       -10.7500
  26   2.0000      -0.378367       -10.2959
  27   2.0000      -0.321321        -8.7436
  28   2.0000      -0.319926        -8.7056
  29   2.0000      -0.301921        -8.2157
  30   2.0000      -0.292252        -7.9526
  31   2.0000      -0.287162        -7.8141
  32   0.0000      -0.106840        -2.9073
  33   0.0000      -0.043267        -1.1774
  34   0.0000      -0.017878        -0.4865
  35   0.0000      -0.016988        -0.4623
  36   0.0000       0.001832         0.0498

MULLIKEN ATOMIC CHARGES
-----------------------
   0 C :    0.867010
   1 C :    0.620815
   2 C :    0.594238
   3 C :    0.558589
   4 C :    0.889582
   5 C :    1.043374
   6 H :   -0.811694
   7 H :   -0.805239
   8 H :   -0.749028
   9 H :   -0.721899
  10 H :   -0.768999
  11 N :    0.625969
  12 O :   -0.671463
  13 O :   -0.671254
Sum of atomic charges:    0.0000000

LOEWDIN ATOMIC CHARGES
----------------------
   0 C :   -0.161157
   1 C :   -0.236303
   2 C :   -0.259245
   3 C :   -0.236199
   4 C :   -0.161151
   5 C :   -0.646400
   6 H :    0.289221
   7 H :    0.289244
   8 H :    0.295903
   9 H :    0.295776
  10 H :    0.295576
  11 N :   -0.626963
  12 O :    0.430421
  13 O :    0.431276

  Mayer bond orders larger than 0.1
B(  0-C ,  1-C ) :   1.7264 B(  0-C ,  2-C ) :  -0.1260 B(  0-C ,  3-C ) :   0.2980
B(  0-C ,  5-C ) :   0.5713 B(  0-C ,  6-H ) :  -0.3495 B(  0-C , 10-H ) :   0.3989
B(  1-C ,  2-C ) :   1.5285 B(  1-C ,  3-C ) :  -0.1941 B(  1-C ,  4-C ) :   0.2769
B(  1-C ,  5-C ) :  -0.3811 B(  1-C ,  6-H ) :   0.3234 B(  1-C ,  9-H ) :   0.2279
B(  1-C , 10-H ) :  -0.3246 B(  2-C ,  3-C ) :   1.5905 B(  2-C ,  4-C ) :  -0.1297
B(  2-C ,  8-H ) :   0.3087 B(  2-C ,  9-H ) :  -0.2027 B(  2-C , 10-H ) :   0.3026
B(  3-C ,  4-C ) :   1.7284 B(  3-C ,  5-C ) :  -0.3967 B(  3-C ,  7-H ) :   0.3493
B(  3-C ,  8-H ) :  -0.2980 B(  3-C ,  9-H ) :   0.2788 B(  3-C , 10-H ) :  -0.1001
B(  4-C ,  5-C ) :   0.5559 B(  4-C ,  7-H ) :  -0.3488 B(  4-C ,  8-H ) :   0.3787
B(  5-C ,  6-H ) :   0.2264 B(  5-C ,  7-H ) :   0.2163 B(  5-C , 11-N ) :   0.6893
B(  5-C , 12-O ) :   0.1275 B(  5-C , 13-O ) :   0.1324 B( 11-N , 12-O ) :   0.9151
B( 11-N , 13-O ) :   0.9128 B( 12-O , 13-O ) :   0.2972

FINAL SINGLE POINT ENERGY      -436.575164856297

DIPOLE MOMENT
-------------
                                X             Y             Z
Electronic contribution:     -5.27603       0.22684       2.79626
Nuclear contribution   :      6.98754      -0.30246      -3.70143
                        -----------------------------------------
Total Dipole Moment    :      1.71152      -0.07562      -0.90516
                        -----------------------------------------
Magnitude (a.u.)       :      1.93761
Magnitude (Debye)      :      4.92501

CHEMICAL SHIELDING SUMMARY (ppm)
--------------------------

  Nucleus  Element    Isotropic     Anisotropy
  -------  -------  ------------   ------------
      0       C           66.758        174.822
      1       C           64.035        172.509
      2       C           58.024        185.861
      3       C           64.155        172.140
      4       C           66.453        174.784
      5       C           42.998        106.692
      6       H           22.901          5.546
      7       H           22.943          5.509
      8       H           23.827          5.266
      9       H           23.674          5.558
     10       H           23.829          5.265
     11       N         -124.858       -211.161
     12       O         -296.024       -493.807
     13       O         -294.917       -497.202

                             ****ORCA TERMINATED NORMALLY****
TOTAL RUN TIME: 0 days 0 hours 14 minutes 49 seconds 722 msec
