                         Program Version 4.0.0.2 - RELEASE -
|  1> !cc-pvdz OLYP NMR
|  2>
|  3> *xyzfile 0 1 guess.xyz
|  4>
|  5>
|  6>                          ****END OF INPUT****

CARTESIAN COORDINATES (ANGSTROEM)
---------------------------------
  C    -14.989850    2.613290    8.077050
  C    -13.963020    1.894520    7.469080
  C    -12.811860    2.555300    7.048170
  C    -12.688600    3.934310    7.235610
  C    -13.714690    4.672510    7.846690
  C    -14.864070    3.989090    8.262770
  O    -15.919760    4.611330    8.867100
  H    -15.729630    5.558150    8.946810
  H    -15.890390    2.103150    8.407520
  H    -14.062030    0.822290    7.324800
  H    -12.008540    1.997840    6.573400
  H    -11.780110    4.429160    6.898660
  C    -13.547560    6.152260    8.031370
  H    -12.584890    6.502190    7.643760
  H    -13.587920    6.408180    9.094990
  H    -14.335070    6.692110    7.495820

 Total Charge           Charge          ....    0
 Multiplicity           Mult            ....    1
 Number of Electrons    NEL             ....   58
 Basis Dimension        Dim             ....  152

ORBITAL ENERGIES
----------------

  NO   OCC          E(Eh)            E(eV)
   0   2.0000     -18.799918      -511.5718
   1   2.0000      -9.962851      -271.1030
   2   2.0000      -9.921512      -269.9781
   3   2.0000      -9.916210      -269.8338
   4   2.0000      -9.908241      -269.6169
   5   2.0000      -9.906728      -269.5758
   6   2.0000      -9.902119      -269.4503
   7   2.0000      -9.899938      -269.3910
   8   2.0000      -0.973961       -26.5028
   9   2.0000      -0.772240       -21.0137
  10   2.0000      -0.702693       -19.1213
  11   2.0000      -0.664860       -18.0918
  12   2.0000      -0.622544       -16.9403
  13   2.0000      -0.542374       -14.7587
  14   2.0000      -0.537676       -14.6309
  15   2.0000      -0.476772       -12.9736
  16   2.0000      -0.432857       -11.7786
  17   2.0000      -0.405854       -11.0438
  18   2.0000      -0.385804       -10.4982
  19   2.0000      -0.379665       -10.3312
  20   2.0000      -0.356836        -9.7100
  21   2.0000      -0.346632        -9.4323
  22   2.0000      -0.338500        -9.2111
  23   2.0000      -0.329451        -8.9648
  24   2.0000      -0.296870        -8.0782
  25   2.0000      -0.285222        -7.7613
  26   2.0000      -0.282329        -7.6826
  27   2.0000      -0.209429        -5.6989
  28   2.0000      -0.182274        -4.9599
  29   0.0000      -0.021180        -0.5763
  30   0.0000      -0.007452        -0.2028
  31   0.0000       0.020209         0.5499
  32   0.0000       0.049455         1.3457
  33   0.0000       0.076268         2.0754

MULLIKEN ATOMIC CHARGES
-----------------------
   0 C :    0.077964
   1 C :    0.068712
   2 C :    0.052672
   3 C :    0.056809
   4 C :   -0.136909
   5 C :    0.021264
   6 O :   -0.163258
   7 H :    0.115811
   8 H :   -0.054758
   9 H :   -0.056569
  10 H :   -0.063829
  11 H :   -0.068890
  12 C :    0.102450
  13 H :    0.006107
  14 H :    0.018988
  15 H :    0.023437
Sum of atomic charges:   -0.0000000

LOEWDIN ATOMIC CHARGES
----------------------
   0 C :   -0.036733
   1 C :   -0.023460
   2 C :   -0.045030
   3 C :   -0.020562
   4 C :   -0.075912
   5 C :   -0.056011
   6 O :    0.084975
   7 H :    0.049355
   8 H :    0.022025
   9 H :    0.021751
  10 H :    0.018029
  11 H :    0.018910
  12 C :   -0.048628
  13 H :    0.035135
  14 H :    0.027515
  15 H :    0.028642

  Mayer bond orders larger than 0.1
B(  0-C ,  1-C ) :   1.4671 B(  0-C ,  5-C ) :   1.3829 B(  0-C ,  8-H ) :   0.9198
B(  1-C ,  2-C ) :   1.4314 B(  1-C ,  9-H ) :   0.9367 B(  2-C ,  3-C ) :   1.4520
B(  2-C , 10-H ) :   0.9319 B(  3-C ,  4-C ) :   1.4370 B(  3-C , 11-H ) :   0.9212
B(  4-C ,  5-C ) :   1.2678 B(  4-C , 12-C ) :   1.1147 B(  5-C ,  6-O ) :   1.2301
B(  6-O ,  7-H ) :   1.0018 B( 12-C , 13-H ) :   0.9447 B( 12-C , 14-H ) :   0.9409
B( 12-C , 15-H ) :   0.9411

FINAL SINGLE POINT ENERGY      -346.686931141074

DIPOLE MOMENT
-------------
                                X             Y             Z
Electronic contribution:     -2.49821      -2.70109       0.68880
Nuclear contribution   :      2.67591       3.33858      -0.65823
                        -----------------------------------------
Total Dipole Moment    :      0.17769       0.63749       0.03057
                        -----------------------------------------
Magnitude (a.u.)       :      0.66250
Magnitude (Debye)      :      1.68393

CHEMICAL SHIELDING SUMMARY (ppm)
--------------------------

  Nucleus  Element    Isotropic     Anisotropy
  -------  -------  ------------   ------------
      0       C           84.069        132.424
      1       C           70.590        158.137
      2       C           78.233        150.330
      3       C           67.205        137.125
      4       C           78.649        140.220
      5       C           46.350        120.307
      6       O          218.495         75.258
      7       H           27.807         11.236
      8       H           24.886          5.186
      9       H           24.468          4.167
     10       H           24.898          4.005
     11       H           24.486          6.422
     12       C          175.226         27.144
     13       H           29.474          7.244
     14       H           29.434          8.482
     15       H           29.436          8.561

                             ****ORCA TERMINATED NORMALLY****
TOTAL RUN TIME: 0 days 0 hours 1 minutes 13 seconds 442 msec
