                         Program Version 4.0.0.2 - RELEASE -
|  1> !aug-cc-pVDZ B3LYP NMR
|  2>
|  3> *xyzfile 0 1 guess.xyz
|  4>
|  5>
|  6>                          ****END OF INPUT****

CARTESIAN COORDINATES (ANGSTROEM)
---------------------------------
  C     -7.113070   -2.336260    4.694200
  C     -6.859770   -1.022870    4.633700
  H     -6.382850   -3.071880    4.366640
  H     -8.059930   -2.702790    5.075840
  C     -5.572410   -0.523230    4.106030
  H     -7.585380   -0.289050    4.962090
  O     -4.702860   -1.212120    3.600330
  O     -5.543300    0.821390    4.281320
  C     -4.361000    1.449220    3.771470
  C     -4.373340    2.904340    4.198030
  H     -4.364470    1.383380    2.677910
  H     -3.464850    0.958050    4.167510
  H     -5.295250    3.397080    3.872290
  H     -3.517030    3.440390    3.779240
  H     -4.337970    2.983830    5.289690

 Total Charge           Charge          ....    0
 Multiplicity           Mult            ....    1
 Number of Electrons    NEL             ....   54
 Basis Dimension        Dim             ....  233

ORBITAL ENERGIES
----------------

  NO   OCC          E(Eh)            E(eV)
   0   2.0000     -19.197513      -522.3909
   1   2.0000     -19.137579      -520.7600
   2   2.0000     -10.316173      -280.7173
   3   2.0000     -10.241908      -278.6965
   4   2.0000     -10.206153      -277.7235
   5   2.0000     -10.204199      -277.6704
   6   2.0000     -10.185099      -277.1506
   7   2.0000      -1.110106       -30.2075
   8   2.0000      -1.024423       -27.8760
   9   2.0000      -0.805365       -21.9151
  10   2.0000      -0.771347       -20.9894
  11   2.0000      -0.672969       -18.3124
  12   2.0000      -0.605390       -16.4735
  13   2.0000      -0.562123       -15.2961
  14   2.0000      -0.518733       -14.1154
  15   2.0000      -0.499073       -13.5805
  16   2.0000      -0.478166       -13.0115
  17   2.0000      -0.446009       -12.1365
  18   2.0000      -0.427894       -11.6436
  19   2.0000      -0.412574       -11.2267
  20   2.0000      -0.398116       -10.8333
  21   2.0000      -0.381962       -10.3937
  22   2.0000      -0.367469        -9.9993
  23   2.0000      -0.356927        -9.7125
  24   2.0000      -0.309819        -8.4306
  25   2.0000      -0.289250        -7.8709
  26   2.0000      -0.282738        -7.6937
  27   0.0000      -0.058781        -1.5995
  28   0.0000      -0.008363        -0.2276
  29   0.0000       0.001381         0.0376
  30   0.0000       0.014040         0.3820
  31   0.0000       0.018640         0.5072

MULLIKEN ATOMIC CHARGES
-----------------------
   0 C :    0.676686
   1 C :    1.675730
   2 H :   -0.528648
   3 H :   -0.550868
   4 C :    0.069272
   5 H :   -0.880493
   6 O :   -0.496532
   7 O :   -0.407634
   8 C :    1.262592
   9 C :    0.778701
  10 H :   -0.389502
  11 H :   -0.445454
  12 H :   -0.265345
  13 H :   -0.248978
  14 H :   -0.249526
Sum of atomic charges:    0.0000000

LOEWDIN ATOMIC CHARGES
----------------------
   0 C :   -0.012842
   1 C :   -0.571931
   2 H :    0.249578
   3 H :    0.236832
   4 C :   -1.060956
   5 H :    0.276425
   6 O :    0.502869
   7 O :    0.403511
   8 C :   -0.891391
   9 C :   -0.507665
  10 H :    0.293105
  11 H :    0.290963
  12 H :    0.264102
  13 H :    0.261724
  14 H :    0.265675

  Mayer bond orders larger than 0.1
B(  0-C ,  1-C ) :   1.0326 B(  0-C ,  2-H ) :   0.8544 B(  0-C ,  3-H ) :   0.6053
B(  0-C ,  4-C ) :   0.2371 B(  1-C ,  2-H ) :  -0.2704 B(  1-C ,  4-C ) :   0.6228
B(  1-C ,  6-O ) :  -0.1607 B(  1-C ,  7-O ) :   0.1118 B(  2-H ,  3-H ) :  -0.2945
B(  2-H ,  4-C ) :   0.1311 B(  4-C ,  5-H ) :   0.3309 B(  4-C ,  6-O ) :   1.6533
B(  4-C ,  7-O ) :   0.7023 B(  5-H ,  7-O ) :  -0.1793 B(  6-O ,  7-O ) :   0.1549
B(  7-O ,  8-C ) :   0.7849 B(  8-C ,  9-C ) :   1.1661 B(  8-C , 10-H ) :   0.6950
B(  8-C , 11-H ) :   0.6533 B(  9-C , 12-H ) :   0.8743 B(  9-C , 13-H ) :   0.8293
B(  9-C , 14-H ) :   0.9162

FINAL SINGLE POINT ENERGY      -345.631021140726

DIPOLE MOMENT
-------------
                                X             Y             Z
Electronic contribution:     -1.06141      -4.76597      -0.49819
Nuclear contribution   :      0.66381       5.29801       0.76161
                        -----------------------------------------
Total Dipole Moment    :     -0.39759       0.53204       0.26342
                        -----------------------------------------
Magnitude (a.u.)       :      0.71452
Magnitude (Debye)      :      1.81616

CHEMICAL SHIELDING SUMMARY (ppm)
--------------------------

  Nucleus  Element    Isotropic     Anisotropy
  -------  -------  ------------   ------------
      0       C           60.562        179.812
      1       C           61.570        132.098
      2       H           24.630          5.162
      3       H           25.640          4.381
      4       C           22.859         79.897
      5       H           25.102          6.770
      6       O          -36.401        517.645
      7       O          121.235        117.813
      8       C          130.886         53.976
      9       C          176.630         21.557
     10       H           27.713          5.983
     11       H           27.271          4.693
     12       H           30.249          7.644
     13       H           30.461          9.114
     14       H           30.352          7.680

                             ****ORCA TERMINATED NORMALLY****
TOTAL RUN TIME: 0 days 0 hours 9 minutes 26 seconds 90 msec
