                         Program Version 4.0.0.2 - RELEASE -
|  1> !cc-pvdz OLYP NMR
|  2>
|  3> *xyzfile 0 1 guess.xyz
|  4>
|  5>
|  6>                          ****END OF INPUT****

CARTESIAN COORDINATES (ANGSTROEM)
---------------------------------
  C     -6.344340    1.097480   -0.002750
  C     -5.015020    1.958450    0.017020
  H     -7.098530    1.543070    0.659040
  H     -6.264690    0.052630    0.339660
  H     -6.806680    1.034400   -0.997800
  O     -4.981790    3.179460    0.003290
  H     -4.026780    1.430760   -0.018460

 Total Charge           Charge          ....    0
 Multiplicity           Mult            ....    1
 Number of Electrons    NEL             ....   24
 Basis Dimension        Dim             ....   62

ORBITAL ENERGIES
----------------

  NO   OCC          E(Eh)            E(eV)
   0   2.0000     -18.773162      -510.8437
   1   2.0000     -10.010144      -272.3899
   2   2.0000      -9.929348      -270.1913
   3   2.0000      -0.957986       -26.0681
   4   2.0000      -0.666887       -18.1469
   5   2.0000      -0.521782       -14.1984
   6   2.0000      -0.414642       -11.2830
   7   2.0000      -0.383384       -10.4324
   8   2.0000      -0.374881       -10.2010
   9   2.0000      -0.339887        -9.2488
  10   2.0000      -0.320611        -8.7243
  11   2.0000      -0.203575        -5.5396
  12   0.0000      -0.063590        -1.7304
  13   0.0000       0.048822         1.3285
  14   0.0000       0.061702         1.6790
  15   0.0000       0.102723         2.7952
  16   0.0000       0.107778         2.9328

MULLIKEN ATOMIC CHARGES
-----------------------
   0 C :   -0.028936
   1 C :    0.142813
   2 H :    0.036491
   3 H :    0.018111
   4 H :    0.043228
   5 O :   -0.189628
   6 H :   -0.022079
Sum of atomic charges:   -0.0000000

LOEWDIN ATOMIC CHARGES
----------------------
   0 C :   -0.096221
   1 C :   -0.006611
   2 H :    0.039034
   3 H :    0.030239
   4 H :    0.044622
   5 O :    0.001392
   6 H :   -0.012454

  Mayer bond orders larger than 0.1
B(  0-C ,  1-C ) :   0.9951 B(  0-C ,  2-H ) :   0.9585 B(  0-C ,  3-H ) :   0.9593
B(  0-C ,  4-H ) :   0.9526 B(  1-C ,  5-O ) :   2.1944 B(  1-C ,  6-H ) :   0.9103

FINAL SINGLE POINT ENERGY      -153.782966725476

DIPOLE MOMENT
-------------
                                X             Y             Z
Electronic contribution:      1.98307       3.12251       0.01552
Nuclear contribution   :     -2.20375      -3.98265      -0.03407
                        -----------------------------------------
Total Dipole Moment    :     -0.22068      -0.86014      -0.01855
                        -----------------------------------------
Magnitude (a.u.)       :      0.88819
Magnitude (Debye)      :      2.25761

CHEMICAL SHIELDING SUMMARY (ppm)
--------------------------

  Nucleus  Element    Isotropic     Anisotropy
  -------  -------  ------------   ------------
      0       C          163.968         48.690
      1       C            2.134        147.852
      2       H           29.805          5.659
      3       H           29.224          4.192
      4       H           29.549          5.736
      5       O         -357.195       -942.812
      6       H           20.816          3.050

                             ****ORCA TERMINATED NORMALLY****
TOTAL RUN TIME: 0 days 0 hours 0 minutes 6 seconds 473 msec
