                         Program Version 4.0.0.2 - RELEASE -
|  1> !aug-cc-pVDZ B3LYP NMR
|  2>
|  3> *xyzfile 0 1 guess.xyz
|  4>
|  5>
|  6>                          ****END OF INPUT****

CARTESIAN COORDINATES (ANGSTROEM)
---------------------------------
  C    -17.001970    1.946380    9.168510
  C    -15.925600    1.365760    8.498080
  C    -14.847460    2.155220    8.096290
  C    -14.845940    3.525080    8.365000
  C    -15.922310    4.108200    9.035930
  C    -16.992830    3.311490    9.432360
  O    -18.064920    3.838570   10.090050
  H    -17.918700    4.791890   10.202050
  H    -17.844170    1.337460    9.483920
  H    -14.004770    4.137540    8.050830
  H    -15.907800    5.174160    9.238150
  H    -15.928280    0.299300    8.289650
  H    -14.008600    1.702600    7.573760

 Total Charge           Charge          ....    0
 Multiplicity           Mult            ....    1
 Number of Electrons    NEL             ....   50
 Basis Dimension        Dim             ....  215

ORBITAL ENERGIES
----------------

  NO   OCC          E(Eh)            E(eV)
   0   2.0000     -19.182213      -521.9745
   1   2.0000     -10.249944      -278.9152
   2   2.0000     -10.193458      -277.3781
   3   2.0000     -10.191825      -277.3337
   4   2.0000     -10.190226      -277.2901
   5   2.0000     -10.185083      -277.1502
   6   2.0000     -10.182890      -277.0905
   7   2.0000      -1.070127       -29.1196
   8   2.0000      -0.855708       -23.2850
   9   2.0000      -0.754460       -20.5299
  10   2.0000      -0.742375       -20.2010
  11   2.0000      -0.629348       -17.1254
  12   2.0000      -0.606098       -16.4928
  13   2.0000      -0.548931       -14.9372
  14   2.0000      -0.500927       -13.6309
  15   2.0000      -0.471434       -12.8284
  16   2.0000      -0.442151       -12.0315
  17   2.0000      -0.427716       -11.6387
  18   2.0000      -0.416192       -11.3252
  19   2.0000      -0.394303       -10.7295
  20   2.0000      -0.362650        -9.8682
  21   2.0000      -0.345637        -9.4053
  22   2.0000      -0.341958        -9.3052
  23   2.0000      -0.259466        -7.0604
  24   2.0000      -0.230033        -6.2595
  25   0.0000      -0.018583        -0.5057
  26   0.0000      -0.013553        -0.3688
  27   0.0000      -0.001462        -0.0398
  28   0.0000       0.000345         0.0094
  29   0.0000       0.010452         0.2844

MULLIKEN ATOMIC CHARGES
-----------------------
   0 C :    0.789101
   1 C :    0.937735
   2 C :    0.560034
   3 C :    0.820516
   4 C :    0.747940
   5 C :    0.535158
   6 O :   -0.576463
   7 H :    0.154899
   8 H :   -0.742741
   9 H :   -0.754204
  10 H :   -0.948853
  11 H :   -0.740559
  12 H :   -0.782563
Sum of atomic charges:    0.0000000

LOEWDIN ATOMIC CHARGES
----------------------
   0 C :   -0.196461
   1 C :   -0.275100
   2 C :   -0.291340
   3 C :   -0.283005
   4 C :   -0.230602
   5 C :   -0.885385
   6 O :    0.528197
   7 H :    0.170472
   8 H :    0.297554
   9 H :    0.291686
  10 H :    0.293810
  11 H :    0.292241
  12 H :    0.287933

  Mayer bond orders larger than 0.1
B(  0-C ,  1-C ) :   1.4414 B(  0-C ,  3-C ) :   0.2352 B(  0-C ,  4-C ) :  -0.1221
B(  0-C ,  5-C ) :   1.3281 B(  0-C ,  8-H ) :  -0.4907 B(  0-C , 11-H ) :   0.3940
B(  1-C ,  2-C ) :   1.4244 B(  1-C ,  3-C ) :  -0.2697 B(  1-C ,  4-C ) :   0.2500
B(  1-C ,  5-C ) :  -0.1623 B(  1-C , 11-H ) :  -0.2682 B(  1-C , 12-H ) :   0.2139
B(  2-C ,  3-C ) :   1.4143 B(  2-C ,  9-H ) :   0.3129 B(  2-C , 11-H ) :   0.2907
B(  2-C , 12-H ) :  -0.2216 B(  3-C ,  4-C ) :   1.4581 B(  3-C ,  5-C ) :  -0.3229
B(  3-C ,  9-H ) :  -0.2555 B(  3-C , 10-H ) :   0.2256 B(  3-C , 12-H ) :   0.2367
B(  4-C ,  5-C ) :   0.9366 B(  4-C ,  6-O ) :   0.1936 B(  4-C ,  9-H ) :   0.3183
B(  4-C , 10-H ) :  -0.5701 B(  5-C ,  6-O ) :   0.3892 B(  5-C ,  8-H ) :   0.6651
B(  5-C , 10-H ) :   0.4004 B(  5-C , 11-H ) :  -0.1034 B(  6-O ,  7-H ) :   1.0230

FINAL SINGLE POINT ENERGY      -307.326757273489

DIPOLE MOMENT
-------------
                                X             Y             Z
Electronic contribution:     -1.71507       0.57536       1.00119
Nuclear contribution   :      1.95678      -0.13738      -1.03816
                        -----------------------------------------
Total Dipole Moment    :      0.24171       0.43799      -0.03697
                        -----------------------------------------
Magnitude (a.u.)       :      0.50162
Magnitude (Debye)      :      1.27502

CHEMICAL SHIELDING SUMMARY (ppm)
--------------------------

  Nucleus  Element    Isotropic     Anisotropy
  -------  -------  ------------   ------------
      0       C           79.971        142.772
      1       C           62.798        173.706
      2       C           73.263        163.260
      3       C           63.503        171.341
      4       C           81.009        122.504
      5       C           37.865        136.327
      6       O          216.827         66.696
      7       H           27.662         12.184
      8       H           24.542          5.242
      9       H           24.243          4.741
     10       H           24.953          5.368
     11       H           24.144          4.720
     12       H           24.610          4.318

                             ****ORCA TERMINATED NORMALLY****
TOTAL RUN TIME: 0 days 0 hours 8 minutes 35 seconds 753 msec
