                         Program Version 4.0.0.2 - RELEASE -
|  1> !cc-pvdz OLYP NMR
|  2>
|  3> *xyzfile 0 1 guess.xyz
|  4>
|  5>
|  6>                          ****END OF INPUT****

CARTESIAN COORDINATES (ANGSTROEM)
---------------------------------
  C     -9.193100    5.490760    5.303500
  C    -10.201150    4.432020    5.643920
  H     -9.262540    6.357860    5.992160
  H     -9.363890    5.859730    4.288040
  H     -8.191010    5.084200    5.410140
  O    -11.242190    4.752200    6.254110
  O     -9.994630    3.151940    5.260310
  H     -9.398250    2.499910    4.809160

 Total Charge           Charge          ....    0
 Multiplicity           Mult            ....    1
 Number of Electrons    NEL             ....   32
 Basis Dimension        Dim             ....   76

ORBITAL ENERGIES
----------------

  NO   OCC          E(Eh)            E(eV)
   0   2.0000     -18.803770      -511.6766
   1   2.0000     -18.744085      -510.0525
   2   2.0000     -10.041522      -273.2437
   3   2.0000      -9.925784      -270.0943
   4   2.0000      -0.986270       -26.8378
   5   2.0000      -0.905274       -24.6338
   6   2.0000      -0.678909       -18.4741
   7   2.0000      -0.591501       -16.0956
   8   2.0000      -0.440594       -11.9892
   9   2.0000      -0.406204       -11.0534
  10   2.0000      -0.386275       -10.5111
  11   2.0000      -0.347315        -9.4509
  12   2.0000      -0.334567        -9.1040
  13   2.0000      -0.273968        -7.4550
  14   2.0000      -0.252977        -6.8839
  15   2.0000      -0.205836        -5.6011
  16   0.0000      -0.020901        -0.5687
  17   0.0000      -0.010242        -0.2787
  18   0.0000       0.054120         1.4727
  19   0.0000       0.093418         2.5420
  20   0.0000       0.109525         2.9803

MULLIKEN ATOMIC CHARGES
-----------------------
   0 C :    0.043078
   1 C :    0.172866
   2 H :    0.038787
   3 H :    0.039598
   4 H :    0.006722
   5 O :   -0.251862
   6 O :   -0.207464
   7 H :    0.158275
Sum of atomic charges:   -0.0000000

LOEWDIN ATOMIC CHARGES
----------------------
   0 C :   -0.077134
   1 C :   -0.128343
   2 H :    0.046119
   3 H :    0.044144
   4 H :    0.025299
   5 O :   -0.055538
   6 O :    0.063055
   7 H :    0.082398

  Mayer bond orders larger than 0.1
B(  0-C ,  1-C ) :   1.0381 B(  0-C ,  2-H ) :   0.9595 B(  0-C ,  3-H ) :   0.9478
B(  0-C ,  4-H ) :   0.9510 B(  1-C ,  5-O ) :   2.0779 B(  1-C ,  6-O ) :   1.1895
B(  5-O ,  6-O ) :   0.1097 B(  6-O ,  7-H ) :   0.9322

FINAL SINGLE POINT ENERGY      -228.994657525331

DIPOLE MOMENT
-------------
                                X             Y             Z
Electronic contribution:     -2.76438      -2.28018       0.99070
Nuclear contribution   :      4.07987       1.96591      -1.78345
                        -----------------------------------------
Total Dipole Moment    :      1.31549      -0.31427      -0.79275
                        -----------------------------------------
Magnitude (a.u.)       :      1.56771
Magnitude (Debye)      :      3.98481

CHEMICAL SHIELDING SUMMARY (ppm)
--------------------------

  Nucleus  Element    Isotropic     Anisotropy
  -------  -------  ------------   ------------
      0       C          170.823         40.699
      1       C           36.477         80.818
      2       H           29.064          6.410
      3       H           29.397          5.725
      4       H           30.259          6.327
      5       O         -126.941       -464.900
      6       O          156.024        150.300
      7       H           22.329         11.278

                             ****ORCA TERMINATED NORMALLY****
TOTAL RUN TIME: 0 days 0 hours 0 minutes 11 seconds 270 msec
