                         Program Version 4.0.0.2 - RELEASE -
|  1> !cc-pvdz BP86 NMR
|  2>
|  3> *xyzfile 0 1 guess.xyz
|  4>
|  5>
|  6>                          ****END OF INPUT****

CARTESIAN COORDINATES (ANGSTROEM)
---------------------------------
  C     -6.012530    5.171680    0.187560
  C     -7.588080    4.890010    0.566630
  C     -5.713360    3.849560   -0.553280
  H     -5.836740    3.057870    0.216360
  H     -4.683490    3.676640   -0.878770
  H     -6.395500    3.630610   -1.370800
  C     -4.590240    5.320210    0.835040
  H     -4.229680    4.480740    1.430750
  H     -4.358590    6.264790    1.341800
  H     -3.877450    5.366240   -0.029310
  C     -6.108340    6.649220   -0.331370
  H     -5.155240    7.131460   -0.591100
  H     -6.457750    7.264390    0.527700
  H     -6.815380    6.821570   -1.140390
  O     -8.443040    5.801740    0.617700
  O     -8.005130    3.565010    0.507720
  C     -9.431630    3.297100    0.297280
  C     -9.772350    1.799170    0.184220
  H     -9.765440    3.778420   -0.631980
  H     -9.997900    3.707490    1.138170
  H     -9.394380    1.354300   -0.744380
  H    -10.862770    1.650450    0.179790
  H     -9.361550    1.216950    1.014260

 Total Charge           Charge          ....    0
 Multiplicity           Mult            ....    1
 Number of Electrons    NEL             ....   72
 Basis Dimension        Dim             ....  196

ORBITAL ENERGIES
----------------

  NO   OCC          E(Eh)            E(eV)
   0   2.0000     -18.825743      -512.2745
   1   2.0000     -18.769247      -510.7372
   2   2.0000     -10.036529      -273.1078
   3   2.0000      -9.972601      -271.3683
   4   2.0000      -9.957039      -270.9448
   5   2.0000      -9.919330      -269.9187
   6   2.0000      -9.916351      -269.8376
   7   2.0000      -9.903406      -269.4854
   8   2.0000      -9.903304      -269.4826
   9   2.0000      -0.991673       -26.9848
  10   2.0000      -0.907614       -24.6974
  11   2.0000      -0.746202       -20.3052
  12   2.0000      -0.700517       -19.0620
  13   2.0000      -0.633849       -17.2479
  14   2.0000      -0.615471       -16.7478
  15   2.0000      -0.585972       -15.9451
  16   2.0000      -0.533374       -14.5138
  17   2.0000      -0.493169       -13.4198
  18   2.0000      -0.440646       -11.9906
  19   2.0000      -0.430471       -11.7137
  20   2.0000      -0.410708       -11.1759
  21   2.0000      -0.396944       -10.8014
  22   2.0000      -0.392380       -10.6772
  23   2.0000      -0.371562       -10.1107
  24   2.0000      -0.363174        -9.8825
  25   2.0000      -0.351416        -9.5625
  26   2.0000      -0.348914        -9.4944
  27   2.0000      -0.332771        -9.0552
  28   2.0000      -0.322190        -8.7672
  29   2.0000      -0.314938        -8.5699
  30   2.0000      -0.304255        -8.2792
  31   2.0000      -0.299300        -8.1444
  32   2.0000      -0.284527        -7.7424
  33   2.0000      -0.260557        -7.0901
  34   2.0000      -0.247950        -6.7471
  35   2.0000      -0.213650        -5.8137
  36   0.0000      -0.042787        -1.1643
  37   0.0000       0.023793         0.6474
  38   0.0000       0.039968         1.0876
  39   0.0000       0.051083         1.3900
  40   0.0000       0.076337         2.0772

MULLIKEN ATOMIC CHARGES
-----------------------
   0 C :   -0.294451
   1 C :    0.239610
   2 C :    0.037140
   3 H :    0.055342
   4 H :    0.004378
   5 H :    0.014137
   6 C :   -0.002354
   7 H :    0.020059
   8 H :    0.020260
   9 H :    0.055768
  10 C :    0.013001
  11 H :    0.014475
  12 H :    0.062696
  13 H :    0.022250
  14 O :   -0.236601
  15 O :   -0.252539
  16 C :    0.074752
  17 C :   -0.081631
  18 H :    0.045163
  19 H :    0.049258
  20 H :    0.041858
  21 H :    0.049080
  22 H :    0.048350
Sum of atomic charges:   -0.0000000

LOEWDIN ATOMIC CHARGES
----------------------
   0 C :   -0.073476
   1 C :   -0.095161
   2 C :   -0.069166
   3 H :    0.044785
   4 H :    0.021281
   5 H :    0.017693
   6 C :   -0.060793
   7 H :    0.021887
   8 H :    0.024287
   9 H :    0.048031
  10 C :   -0.063168
  11 H :    0.026354
  12 H :    0.049038
  13 H :    0.020711
  14 O :   -0.054618
  15 O :    0.060871
  16 C :   -0.001041
  17 C :   -0.081987
  18 H :    0.027097
  19 H :    0.026138
  20 H :    0.032181
  21 H :    0.044856
  22 H :    0.034201

  Mayer bond orders larger than 0.1
B(  0-C ,  1-C ) :   0.8988 B(  0-C ,  2-C ) :   1.0292 B(  0-C ,  6-C ) :   1.0297
B(  0-C , 10-C ) :   1.0303 B(  1-C , 14-O ) :   2.0391 B(  1-C , 15-O ) :   1.1671
B(  2-C ,  3-H ) :   0.9398 B(  2-C ,  4-H ) :   0.9554 B(  2-C ,  5-H ) :   0.9577
B(  6-C ,  7-H ) :   0.9602 B(  6-C ,  8-H ) :   0.9584 B(  6-C ,  9-H ) :   0.9457
B( 10-C , 11-H ) :   0.9567 B( 10-C , 12-H ) :   0.9433 B( 10-C , 13-H ) :   0.9599
B( 14-O , 15-O ) :   0.1069 B( 15-O , 16-C ) :   0.9363 B( 16-C , 17-C ) :   1.1222
B( 16-C , 18-H ) :   0.9455 B( 16-C , 19-H ) :   0.9475 B( 17-C , 20-H ) :   0.9663
B( 17-C , 21-H ) :   0.9544 B( 17-C , 22-H ) :   0.9637

FINAL SINGLE POINT ENERGY      -425.577259328135

DIPOLE MOMENT
-------------
                                X             Y             Z
Electronic contribution:     -4.67135       2.28561       2.64833
Nuclear contribution   :      4.86314      -2.96154      -2.85809
                        -----------------------------------------
Total Dipole Moment    :      0.19178      -0.67593      -0.20976
                        -----------------------------------------
Magnitude (a.u.)       :      0.73325
Magnitude (Debye)      :      1.86378

CHEMICAL SHIELDING SUMMARY (ppm)
--------------------------

  Nucleus  Element    Isotropic     Anisotropy
  -------  -------  ------------   ------------
      0       C          133.637         85.762
      1       C           10.156       -102.906
      2       C          153.422         42.138
      3       H           28.458          5.543
      4       H           30.036          6.485
      5       H           29.908          7.543
      6       C          145.889         59.379
      7       H           29.449          7.732
      8       H           29.423          8.058
      9       H           28.691          6.329
     10       C          154.813         44.444
     11       H           30.006          6.867
     12       H           28.559          5.962
     13       H           30.071          8.667
     14       O         -140.795       -344.606
     15       O           86.322         61.735
     16       C          124.482         68.224
     17       C          176.612         24.560
     18       H           27.322          5.655
     19       H           27.001          5.988
     20       H           30.013          7.457
     21       H           30.181          9.199
     22       H           30.071          7.615

                             ****ORCA TERMINATED NORMALLY****
TOTAL RUN TIME: 0 days 0 hours 2 minutes 38 seconds 436 msec
