                         Program Version 4.0.0.2 - RELEASE -
|  1> !cc-pvdz OLYP NMR
|  2>
|  3> *xyzfile 0 1 guess.xyz
|  4>
|  5>
|  6>                          ****END OF INPUT****

CARTESIAN COORDINATES (ANGSTROEM)
---------------------------------
  C     -7.070220    2.323870    5.350750
  C     -6.431590    3.497590    5.404230
  H     -6.746610    1.511210    4.707880
  H     -7.950120    2.152030    5.963880
  C     -5.234810    3.745660    4.576600
  H     -6.754480    4.309740    6.044950
  O     -4.648060    4.819660    4.612450
  H     -4.904490    2.915020    3.931130

 Total Charge           Charge          ....    0
 Multiplicity           Mult            ....    1
 Number of Electrons    NEL             ....   30
 Basis Dimension        Dim             ....   76

ORBITAL ENERGIES
----------------

  NO   OCC          E(Eh)            E(eV)
   0   2.0000     -18.766522      -510.6630
   1   2.0000      -9.994413      -271.9618
   2   2.0000      -9.943496      -270.5763
   3   2.0000      -9.932854      -270.2867
   4   2.0000      -0.952492       -25.9186
   5   2.0000      -0.730645       -19.8819
   6   2.0000      -0.584027       -15.8922
   7   2.0000      -0.514467       -13.9994
   8   2.0000      -0.423139       -11.5142
   9   2.0000      -0.415916       -11.3176
  10   2.0000      -0.359926        -9.7941
  11   2.0000      -0.350192        -9.5292
  12   2.0000      -0.342748        -9.3267
  13   2.0000      -0.258519        -7.0347
  14   2.0000      -0.201804        -5.4914
  15   0.0000      -0.092031        -2.5043
  16   0.0000       0.017314         0.4711
  17   0.0000       0.050708         1.3798
  18   0.0000       0.055023         1.4972
  19   0.0000       0.097993         2.6665

MULLIKEN ATOMIC CHARGES
-----------------------
   0 C :    0.113361
   1 C :   -0.071189
   2 H :    0.009634
   3 H :    0.014127
   4 C :    0.209835
   5 H :   -0.025082
   6 O :   -0.205367
   7 H :   -0.045319
Sum of atomic charges:   -0.0000000

LOEWDIN ATOMIC CHARGES
----------------------
   0 C :    0.019374
   1 C :   -0.049152
   2 H :    0.023887
   3 H :    0.027187
   4 C :   -0.034937
   5 H :    0.027471
   6 O :   -0.001063
   7 H :   -0.012766

  Mayer bond orders larger than 0.1
B(  0-C ,  1-C ) :   1.9072 B(  0-C ,  2-H ) :   0.9332 B(  0-C ,  3-H ) :   0.9345
B(  0-C ,  6-O ) :   0.1090 B(  1-C ,  4-C ) :   1.0967 B(  1-C ,  5-H ) :   0.9467
B(  4-C ,  6-O ) :   2.1136 B(  4-C ,  7-H ) :   0.9096

FINAL SINGLE POINT ENERGY      -191.864647639210

DIPOLE MOMENT
-------------
                                X             Y             Z
Electronic contribution:      2.20138       2.49833      -0.56569
Nuclear contribution   :     -2.88946      -3.35513       0.70721
                        -----------------------------------------
Total Dipole Moment    :     -0.68807      -0.85681       0.14152
                        -----------------------------------------
Magnitude (a.u.)       :      1.10797
Magnitude (Debye)      :      2.81623

CHEMICAL SHIELDING SUMMARY (ppm)
--------------------------

  Nucleus  Element    Isotropic     Anisotropy
  -------  -------  ------------   ------------
      0       C           63.459        174.561
      1       C           57.261        135.053
      2       H           25.438          3.903
      3       H           25.180          4.324
      4       C            9.225        128.582
      5       H           25.195          4.914
      6       O         -338.524       -963.897
      7       H           21.608          2.063

                             ****ORCA TERMINATED NORMALLY****
TOTAL RUN TIME: 0 days 0 hours 0 minutes 10 seconds 892 msec
