                         Program Version 4.0.0.2 - RELEASE -
|  1> !AM1 opt freq
|  2>
|  3> *xyz 0 1
|  4> N 0 0 0
|  5> N 1 1 1
|  6> end
|  7>
|  8>
|  9>                          ****END OF INPUT****
 Total Charge           Charge          ....    0
 Multiplicity           Mult            ....    1
 Number of Electrons    NEL             ....   10
FINAL SINGLE POINT ENERGY       -14.746929569825
FINAL SINGLE POINT ENERGY       -14.876875607792
FINAL SINGLE POINT ENERGY       -15.022383620241
FINAL SINGLE POINT ENERGY       -15.157487417885
FINAL SINGLE POINT ENERGY       -15.218817128500
FINAL SINGLE POINT ENERGY       -15.219021175023
FINAL SINGLE POINT ENERGY       -15.219085358307
FINAL SINGLE POINT ENERGY       -15.219085397111
                    ***********************HURRAY********************

CARTESIAN COORDINATES (ANGSTROEM)
---------------------------------
  N      0.180823    0.180823    0.180823
  N      0.819177    0.819177    0.819177

 Multiplicity           Mult            ....    1
 Number of Electrons    NEL             ....   10
 Basis Dimension        Dim             ....    8

ORBITAL ENERGIES
----------------

  NO   OCC          E(Eh)            E(eV)
   0   2.0000      -1.521166       -41.3930
   1   2.0000      -0.787549       -21.4303
   2   2.0000      -0.595049       -16.1921
   3   2.0000      -0.595049       -16.1921
   4   2.0000      -0.526361       -14.3230
   5   0.0000       0.036846         1.0026
   6   0.0000       0.036846         1.0026
   7   0.0000       0.221648         6.0313

MULLIKEN ATOMIC CHARGES
-----------------------
   0 N :   -0.000000
   1 N :    0.000000
Sum of atomic charges:   -0.0000000

LOEWDIN ATOMIC CHARGES
----------------------
   0 N :   -0.000000
   1 N :   -0.000000

  Mayer bond orders larger than 0.1
B(  0-N ,  1-N ) :   3.0000

FINAL SINGLE POINT ENERGY       -15.219085397090

DIPOLE MOMENT
-------------
                                X             Y             Z
Electronic contribution:     -0.00000      -0.00000       0.00000
Nuclear contribution   :     -0.00000      -0.00000      -0.00000
                        -----------------------------------------
Total Dipole Moment    :     -0.00000      -0.00000       0.00000
                        -----------------------------------------
Magnitude (a.u.)       :      0.00000
Magnitude (Debye)      :      0.00000

VIBRATIONAL FREQUENCIES
-----------------------

   0:         0.00 cm**-1
   1:         0.00 cm**-1
   2:         0.00 cm**-1
   3:         0.00 cm**-1
   4:         0.00 cm**-1
   5:      2743.22 cm**-1

IR SPECTRUM
-----------

 Mode    freq (cm**-1)   T**2         TX         TY         TZ
-------------------------------------------------------------------
   5:      2743.22    0.000000  ( -0.000000  -0.000000  -0.000000)

--------------------------
THERMOCHEMISTRY AT 298.15K
--------------------------

Temperature         ... 298.15 K
Pressure            ... 1.00 atm
Total Mass          ... 28.01 AMU
The molecule is recognized as being linear

Throughout the following assumptions are being made:
  (1) The electronic state is orbitally nondegenerate
  (2) There are no thermally accessible electronically excited states
  (3) Hindered rotations indicated by low frequency modes are not
      treated as such but are treated as vibrations and this may
      cause some error
  (4) All equations used are the standard statistical mechanics
      equations for an ideal gas
  (5) All vibrations are strictly harmonic

freq.    2743.22  E(vib)   ...       0.00

------------
INNER ENERGY
------------

The inner energy is: U= E(el) + E(ZPE) + E(vib) + E(rot) + E(trans)
    E(el)   - is the total energy from the electronic structure calculation
              = E(kin-el) + E(nuc-el) + E(el-el) + E(nuc-nuc)
    E(ZPE)  - the the zero temperature vibrational energy from the frequency calculation
    E(vib)  - the the finite temperature correction to E(ZPE) due to population
              of excited vibrational states
    E(rot)  - is the rotational thermal energy
    E(trans)- is the translational thermal energy

Summary of contributions to the inner energy U:
Electronic energy                ...    -15.21908540 Eh
Zero point energy                ...      0.00624952 Eh       3.92 kcal/mol
Thermal vibrational correction   ...      0.00000002 Eh       0.00 kcal/mol
Thermal rotational correction    ...      0.00094418 Eh       0.59 kcal/mol
Thermal translational correction ...      0.00141627 Eh       0.89 kcal/mol
-----------------------------------------------------------------------
Total thermal energy                    -15.21047541 Eh

Summary of corrections to the electronic energy:
(perhaps to be used in another calculation)
Total thermal correction                  0.00236047 Eh       1.48 kcal/mol
Non-thermal (ZPE) correction              0.00624952 Eh       3.92 kcal/mol
-----------------------------------------------------------------------
Total correction                          0.00860999 Eh       5.40 kcal/mol

--------
ENTHALPY
--------

The enthalpy is H = U + kB*T
                kB is Boltzmann's constant
Total free energy                 ...    -15.21047541 Eh
Thermal Enthalpy correction       ...      0.00094421 Eh       0.59 kcal/mol
-----------------------------------------------------------------------
Total Enthalpy                    ...    -15.20953120 Eh

Vibrational entropy computed according to the QRRHO of S. Grimme
Chem.Eur.J. 2012 18 9955

check

-------
ENTROPY
-------

The entropy contributions are T*S = T*(S(el)+S(vib)+S(rot)+S(trans)
     S(el)   - electronic entropy
     S(vib)  - vibrational entropy
     S(rot)  - rotational entropy
     S(trans)- translational entropy
The entropies will be listed as mutliplied by the temperature to get
units of energy

Electronic entropy                ...      0.00000000 Eh      0.00 kcal/mol
Vibrational entropy               ...      0.00000002 Eh      0.00 kcal/mol
Rotational entropy                ...      0.00468612 Eh      2.94 kcal/mol
Translational entropy             ...      0.01706909 Eh     10.71 kcal/mol
-----------------------------------------------------------------------
Final entropy term                ...      0.02175523 Eh     13.65 kcal/mol

CAUTION: The rotational entropy is not quite correctly treated here
         because it includes a symmetry number that is not yet correctly
         implemented in ORCA!
For a linear molecule the correct rotational entropy is:
    S(rot) = R*(ln(qrot/sn)+1)
    R    = 8.31441 J/mol/K = 1.987191683e-3 kcal/mol/K
    qrot =  105.2465196
    sn is the rotational symmetry number. We have assumed 2 here
       if it is different for your molecule then you should correct
       the printed rotational entropy by manually evaluating the equation
       as given above

For convenience we print out the resulting values for sn=1 - 12:
 sn= 1  qrot/sn=     105.2465 T*S(rot)=     3.35 kcal/mol T*S(tot)=    14.06 kcal/mol
 sn= 2  qrot/sn=      52.6233 T*S(rot)=     2.94 kcal/mol T*S(tot)=    13.65 kcal/mol
 sn= 3  qrot/sn=      35.0822 T*S(rot)=     2.70 kcal/mol T*S(tot)=    13.41 kcal/mol
 sn= 4  qrot/sn=      26.3116 T*S(rot)=     2.53 kcal/mol T*S(tot)=    13.24 kcal/mol
 sn= 5  qrot/sn=      21.0493 T*S(rot)=     2.40 kcal/mol T*S(tot)=    13.11 kcal/mol
 sn= 6  qrot/sn=      17.5411 T*S(rot)=     2.29 kcal/mol T*S(tot)=    13.00 kcal/mol
 sn= 7  qrot/sn=      15.0352 T*S(rot)=     2.20 kcal/mol T*S(tot)=    12.91 kcal/mol
 sn= 8  qrot/sn=      13.1558 T*S(rot)=     2.12 kcal/mol T*S(tot)=    12.83 kcal/mol
 sn= 9  qrot/sn=      11.6941 T*S(rot)=     2.05 kcal/mol T*S(tot)=    12.76 kcal/mol
 sn=10  qrot/sn=      10.5247 T*S(rot)=     1.99 kcal/mol T*S(tot)=    12.70 kcal/mol
 sn=11  qrot/sn=       9.5679 T*S(rot)=     1.93 kcal/mol T*S(tot)=    12.64 kcal/mol
 sn=12  qrot/sn=       8.7705 T*S(rot)=     1.88 kcal/mol T*S(tot)=    12.59 kcal/mol

-------------------
GIBBS FREE ENTHALPY
-------------------

The Gibbs free enthalpy is G = H - T*S

Total enthalpy                    ...    -15.20953120 Eh
Total entropy correction          ...     -0.02175523 Eh    -13.65 kcal/mol
-----------------------------------------------------------------------
Final Gibbs free enthalpy         ...    -15.23128642 Eh

For completeness - the Gibbs free enthalpy minus the electronic energy
G-E(el)                           ...     -0.01220103 Eh     -7.66 kcal/mol

                             ****ORCA TERMINATED NORMALLY****
TOTAL RUN TIME: 0 days 0 hours 0 minutes 2 seconds 497 msec
