                         Program Version 4.0.0.2 - RELEASE -
|  1> !aug-cc-pVDZ B3LYP NMR
|  2>
|  3> *xyzfile 0 1 guess.xyz
|  4>
|  5>
|  6>                          ****END OF INPUT****

CARTESIAN COORDINATES (ANGSTROEM)
---------------------------------
  C    -15.339890    3.494010    8.628400
  C    -14.234270    3.074250    7.788380
  C    -13.123110    3.850910    7.512750
  C    -13.144620    5.166900    7.957430
  C    -14.331070    5.759140    8.531860
  C    -15.443270    4.890350    8.944420
  O    -16.542820    5.467840    9.616940
  C    -11.932280    3.274350    6.793740
  H    -11.189450    4.041220    6.548010
  H    -12.243430    2.806140    5.851910
  H    -11.442800    2.519560    7.420840
  C    -16.215620    2.306650    9.123610
  C    -14.249340    7.338540    8.543720
  C    -15.607800    8.025720    8.336420
  H    -16.153090    7.580280    7.498920
  H    -15.479510    9.093160    8.106900
  H    -16.226050    7.988170    9.234550
  C    -13.353920    7.903490    7.371290
  H    -13.602230    7.431910    6.412730
  H    -12.279510    7.766410    7.552900
  H    -13.480810    8.986570    7.242150
  C    -13.614460    7.855460    9.849940
  H    -14.237440    7.621960   10.717140
  H    -13.491130    8.947150    9.815460
  H    -12.619400    7.427600   10.024110
  C    -16.860110    2.522390   10.503570
  H    -16.176320    3.014800   11.201360
  H    -17.146670    1.564040   10.956800
  H    -17.790950    3.088670   10.436560
  C    -17.320260    1.986610    8.100420
  H    -18.040720    2.805600    8.012830
  H    -17.872220    1.089880    8.407750
  H    -16.914790    1.788770    7.100760
  C    -15.361560    0.999670    9.294450
  H    -14.424420    1.198370    9.829310
  H    -15.116880    0.528010    8.334590
  H    -15.902280    0.229850    9.855150
  H    -14.203540    2.061900    7.371350
  H    -12.230440    5.735870    7.783580
  H    -17.341760    5.020960    9.940660

 Total Charge           Charge          ....    0
 Multiplicity           Mult            ....    1
 Number of Electrons    NEL             ....  122
 Basis Dimension        Dim             ....  584

ORBITAL ENERGIES
----------------

  NO   OCC          E(Eh)            E(eV)
   0   2.0000     -19.166901      -521.5579
   1   2.0000     -10.259684      -279.1802
   2   2.0000     -10.208763      -277.7946
   3   2.0000     -10.198779      -277.5229
   4   2.0000     -10.198626      -277.5187
   5   2.0000     -10.196983      -277.4740
   6   2.0000     -10.178651      -276.9752
   7   2.0000     -10.178317      -276.9661
   8   2.0000     -10.176842      -276.9259
   9   2.0000     -10.176344      -276.9124
  10   2.0000     -10.175872      -276.8996
  11   2.0000     -10.173710      -276.8407
  12   2.0000     -10.173105      -276.8242
  13   2.0000     -10.165129      -276.6072
  14   2.0000     -10.161762      -276.5156
  15   2.0000     -10.155603      -276.3480
  16   2.0000      -1.033792       -28.1309
  17   2.0000      -0.850454       -23.1420
  18   2.0000      -0.821482       -22.3537
  19   2.0000      -0.801296       -21.8044
  20   2.0000      -0.754283       -20.5251
  21   2.0000      -0.718673       -19.5561
  22   2.0000      -0.691054       -18.8045
  23   2.0000      -0.687358       -18.7039
  24   2.0000      -0.680295       -18.5118
  25   2.0000      -0.674690       -18.3593
  26   2.0000      -0.668511       -18.1911
  27   2.0000      -0.616165       -16.7667
  28   2.0000      -0.601619       -16.3709
  29   2.0000      -0.563711       -15.3394
  30   2.0000      -0.523786       -14.2529
  31   2.0000      -0.520945       -14.1756
  32   2.0000      -0.474534       -12.9127
  33   2.0000      -0.462364       -12.5816
  34   2.0000      -0.448475       -12.2036
  35   2.0000      -0.446015       -12.1367
  36   2.0000      -0.437312       -11.8999
  37   2.0000      -0.431808       -11.7501
  38   2.0000      -0.423670       -11.5286
  39   2.0000      -0.418148       -11.3784
  40   2.0000      -0.416513       -11.3339
  41   2.0000      -0.403066       -10.9680
  42   2.0000      -0.390173       -10.6172
  43   2.0000      -0.388976       -10.5846
  44   2.0000      -0.384458       -10.4616
  45   2.0000      -0.377100       -10.2614
  46   2.0000      -0.375089       -10.2067
  47   2.0000      -0.367435        -9.9984
  48   2.0000      -0.365495        -9.9456
  49   2.0000      -0.355680        -9.6785
  50   2.0000      -0.354800        -9.6546
  51   2.0000      -0.345792        -9.4095
  52   2.0000      -0.338568        -9.2129
  53   2.0000      -0.332502        -9.0478
  54   2.0000      -0.325929        -8.8690
  55   2.0000      -0.323382        -8.7997
  56   2.0000      -0.311734        -8.4827
  57   2.0000      -0.303818        -8.2673
  58   2.0000      -0.295502        -8.0410
  59   2.0000      -0.225462        -6.1351
  60   2.0000      -0.213344        -5.8054
  61   0.0000      -0.022609        -0.6152
  62   0.0000      -0.015981        -0.4349
  63   0.0000      -0.004530        -0.1233
  64   0.0000      -0.000809        -0.0220
  65   0.0000       0.002626         0.0714

MULLIKEN ATOMIC CHARGES
-----------------------
   0 C :    2.329726
   1 C :    1.507066
   2 C :   -1.523329
   3 C :    0.891203
   4 C :    1.811297
   5 C :   -0.448121
   6 O :   -0.819102
   7 C :    0.977731
   8 H :   -0.478979
   9 H :   -0.117784
  10 H :   -0.037007
  11 C :   -2.985906
  12 C :   -2.996871
  13 C :    1.653668
  14 H :   -0.327360
  15 H :   -0.405652
  16 H :   -0.240098
  17 C :    1.652901
  18 H :   -0.326883
  19 H :   -0.105023
  20 H :   -0.551764
  21 C :    1.779130
  22 H :   -0.396661
  23 H :   -0.208469
  24 H :   -0.365566
  25 C :    1.612223
  26 H :   -0.342611
  27 H :   -0.449575
  28 H :   -0.282590
  29 C :    1.824092
  30 H :   -0.321034
  31 H :   -0.239035
  32 H :   -0.303510
  33 C :    1.685789
  34 H :   -0.309483
  35 H :   -0.165885
  36 H :   -0.569538
  37 H :   -1.362093
  38 H :   -1.271854
  39 H :    0.226954
Sum of atomic charges:   -0.0000000

LOEWDIN ATOMIC CHARGES
----------------------
   0 C :   -0.424250
   1 C :   -0.120508
   2 C :   -0.927618
   3 C :   -0.120837
   4 C :   -0.358712
   5 C :   -0.500653
   6 O :    0.567789
   7 C :   -0.186705
   8 H :    0.299394
   9 H :    0.318076
  10 H :    0.319238
  11 C :   -1.800949
  12 C :   -1.790041
  13 C :   -0.261658
  14 H :    0.308774
  15 H :    0.308619
  16 H :    0.294427
  17 C :   -0.292871
  18 H :    0.304358
  19 H :    0.295374
  20 H :    0.294140
  21 C :   -0.245289
  22 H :    0.305821
  23 H :    0.310464
  24 H :    0.311688
  25 C :   -0.260812
  26 H :    0.306627
  27 H :    0.302040
  28 H :    0.287498
  29 C :   -0.236723
  30 H :    0.309592
  31 H :    0.309049
  32 H :    0.313944
  33 C :   -0.273243
  34 H :    0.309518
  35 H :    0.296470
  36 H :    0.292628
  37 H :    0.337090
  38 H :    0.330862
  39 H :    0.167390

  Mayer bond orders larger than 0.1
B(  0-C ,  1-C ) :   0.4376 B(  0-C ,  2-C ) :  -0.2745 B(  0-C ,  3-C ) :   0.3934
B(  0-C ,  4-C ) :  -0.3084 B(  0-C ,  5-C ) :  -1.6488 B(  0-C ,  6-O ) :   0.9256
B(  0-C ,  7-C ) :   0.3901 B(  0-C , 11-C ) :  -1.3487 B(  0-C , 12-C ) :  -0.3153
B(  0-C , 14-H ) :  -0.1358 B(  0-C , 15-H ) :   0.1538 B(  0-C , 22-H ) :   0.1148
B(  0-C , 23-H ) :  -0.1111 B(  0-C , 25-C ) :  -0.7981 B(  0-C , 26-H ) :  -0.3462
B(  0-C , 28-H ) :  -0.5720 B(  0-C , 29-C ) :   0.2691 B(  0-C , 30-H ) :  -0.4382
B(  0-C , 31-H ) :   0.5017 B(  0-C , 32-H ) :  -0.1886 B(  0-C , 33-C ) :  -0.1111
B(  0-C , 34-H ) :  -0.2396 B(  0-C , 35-H ) :  -0.2988 B(  0-C , 36-H ) :   0.2812
B(  0-C , 37-H ) :   0.3274 B(  0-C , 38-H ) :  -0.1470 B(  0-C , 39-H ) :   0.3023
B(  1-C ,  2-C ) :   0.4791 B(  1-C ,  3-C ) :  -1.2304 B(  1-C ,  4-C ) :   1.3207
B(  1-C ,  5-C ) :  -0.9644 B(  1-C ,  6-O ) :   0.1411 B(  1-C ,  7-C ) :  -1.1929
B(  1-C ,  8-H ) :  -0.2758 B(  1-C , 11-C ) :  -0.4028 B(  1-C , 25-C ) :   0.1691
B(  1-C , 28-H ) :  -0.1014 B(  1-C , 33-C ) :  -0.1425 B(  1-C , 35-H ) :   0.2302
B(  1-C , 36-H ) :  -0.1277 B(  1-C , 37-H ) :  -2.3740 B(  1-C , 38-H ) :   0.3778
B(  2-C ,  3-C ) :   1.0375 B(  2-C ,  4-C ) :  -0.5910 B(  2-C ,  7-C ) :   1.9436
B(  2-C ,  8-H ) :   0.6376 B(  2-C ,  9-H ) :   0.3413 B(  2-C , 10-H ) :   0.2200
B(  2-C , 11-C ) :   0.1736 B(  2-C , 12-C ) :   0.5712 B(  2-C , 20-H ) :   0.1264
B(  2-C , 21-C ) :  -0.1660 B(  2-C , 29-C ) :  -0.1086 B(  2-C , 33-C ) :  -0.1210
B(  2-C , 36-H ) :   0.1170 B(  2-C , 37-H ) :   0.8739 B(  2-C , 38-H ) :   1.3896
B(  3-C ,  5-C ) :  -0.6040 B(  3-C ,  7-C ) :  -0.2785 B(  3-C ,  8-H ) :   0.1364
B(  3-C , 10-H ) :   0.1056 B(  3-C , 11-C ) :  -0.2409 B(  3-C , 12-C ) :   0.4817
B(  3-C , 13-C ) :   0.1727 B(  3-C , 16-H ) :  -0.1012 B(  3-C , 17-C ) :  -0.1964
B(  3-C , 19-H ) :   0.3047 B(  3-C , 20-H ) :  -0.1449 B(  3-C , 24-H ) :   0.1189
B(  3-C , 25-C ) :   0.1334 B(  3-C , 37-H ) :   0.1368 B(  3-C , 38-H ) :  -2.2088
B(  4-C ,  5-C ) :   1.0191 B(  4-C ,  6-O ) :  -0.2169 B(  4-C ,  7-C ) :   0.4461
B(  4-C ,  8-H ) :   0.2810 B(  4-C , 11-C ) :   0.1674 B(  4-C , 12-C ) :  -2.0006
B(  4-C , 13-C ) :  -0.5032 B(  4-C , 15-H ) :  -0.1619 B(  4-C , 16-H ) :  -0.2993
B(  4-C , 17-C ) :  -0.2080 B(  4-C , 18-H ) :  -0.2657 B(  4-C , 19-H ) :  -0.3177
B(  4-C , 20-H ) :   0.1893 B(  4-C , 22-H ) :  -0.4057 B(  4-C , 23-H ) :   0.3891
B(  4-C , 24-H ) :  -0.3448 B(  4-C , 28-H ) :   0.1200 B(  4-C , 30-H ) :   0.1253
B(  4-C , 31-H ) :  -0.1173 B(  4-C , 33-C ) :   0.1087 B(  4-C , 37-H ) :  -0.2528
B(  4-C , 38-H ) :  -0.3516 B(  4-C , 39-H ) :  -0.1831 B(  5-C ,  6-O ) :  -1.0563
B(  5-C ,  7-C ) :  -0.2969 B(  5-C , 11-C ) :   0.7544 B(  5-C , 12-C ) :   0.1108
B(  5-C , 13-C ) :  -0.1374 B(  5-C , 14-H ) :  -0.1438 B(  5-C , 16-H ) :   0.4213
B(  5-C , 17-C ) :   0.2215 B(  5-C , 22-H ) :   0.3524 B(  5-C , 28-H ) :   0.5615
B(  5-C , 30-H ) :   0.3374 B(  5-C , 33-C ) :   0.1297 B(  5-C , 37-H ) :  -0.1846
B(  5-C , 38-H ) :  -0.3118 B(  5-C , 39-H ) :  -0.1552 B(  6-O , 39-H ) :   0.9733
B(  7-C ,  9-H ) :   0.7162 B(  7-C , 10-H ) :   0.8763 B(  7-C , 38-H ) :  -0.1070
B(  9-H , 10-H ) :  -0.1197 B( 11-C , 12-C ) :   0.1708 B( 11-C , 25-C ) :   1.6416
B( 11-C , 26-H ) :   0.5588 B( 11-C , 27-H ) :   0.4442 B( 11-C , 28-H ) :   0.3310
B( 11-C , 29-C ) :   1.0844 B( 11-C , 30-H ) :   0.1694 B( 11-C , 31-H ) :   0.1988
B( 11-C , 32-H ) :   0.5208 B( 11-C , 33-C ) :   1.2118 B( 11-C , 34-H ) :   0.4375
B( 11-C , 35-H ) :   0.2542 B( 11-C , 36-H ) :   0.2519 B( 11-C , 37-H ) :   0.1596
B( 12-C , 13-C ) :   1.6540 B( 12-C , 14-H ) :   0.5283 B( 12-C , 15-H ) :   0.4809
B( 12-C , 16-H ) :   0.2108 B( 12-C , 17-C ) :   1.3172 B( 12-C , 18-H ) :   0.4475
B( 12-C , 19-H ) :   0.1230 B( 12-C , 20-H ) :   0.2960 B( 12-C , 21-C ) :   1.2718
B( 12-C , 22-H ) :   0.1397 B( 12-C , 23-H ) :   0.2122 B( 12-C , 24-H ) :   0.5189
B( 12-C , 38-H ) :   0.1960 B( 13-C , 14-H ) :   0.5182 B( 13-C , 15-H ) :   0.2453
B( 13-C , 16-H ) :   0.5581 B( 14-H , 15-H ) :  -0.1466 B( 14-H , 16-H ) :  -0.1849
B( 15-H , 16-H ) :  -0.1584 B( 17-C , 18-H ) :   0.5154 B( 17-C , 19-H ) :   0.5159
B( 17-C , 20-H ) :   0.3670 B( 17-C , 21-C ) :  -0.1313 B( 17-C , 24-H ) :  -0.1041
B( 17-C , 38-H ) :   0.1344 B( 18-H , 19-H ) :  -0.1758 B( 18-H , 20-H ) :  -0.1772
B( 19-H , 20-H ) :  -0.1582 B( 21-C , 22-H ) :   0.5960 B( 21-C , 23-H ) :   0.3472
B( 21-C , 24-H ) :   0.4916 B( 22-H , 23-H ) :  -0.1371 B( 22-H , 24-H ) :  -0.1446
B( 23-H , 24-H ) :  -0.1054 B( 25-C , 26-H ) :   0.5358 B( 25-C , 27-H ) :   0.3447
B( 25-C , 28-H ) :   0.5208 B( 25-C , 30-H ) :  -0.1037 B( 25-C , 33-C ) :   0.1224
B( 26-H , 27-H ) :  -0.1660 B( 26-H , 28-H ) :  -0.2096 B( 27-H , 28-H ) :  -0.1328
B( 27-H , 33-C ) :  -0.1478 B( 28-H , 29-C ) :  -0.1247 B( 29-C , 30-H ) :   0.5703
B( 29-C , 31-H ) :   0.3048 B( 29-C , 32-H ) :   0.5185 B( 29-C , 33-C ) :  -0.1349
B( 30-H , 31-H ) :  -0.1359 B( 30-H , 32-H ) :  -0.1387 B( 31-H , 32-H ) :  -0.1148
B( 32-H , 33-C ) :  -0.1028 B( 33-C , 34-H ) :   0.5083 B( 33-C , 35-H ) :   0.5128
B( 33-C , 36-H ) :   0.3336 B( 33-C , 37-H ) :   0.2138 B( 34-H , 35-H ) :  -0.1590
B( 34-H , 36-H ) :  -0.1965 B( 35-H , 36-H ) :  -0.1403

FINAL SINGLE POINT ENERGY      -660.863699449157

DIPOLE MOMENT
-------------
                                X             Y             Z
Electronic contribution:     -0.39389       0.21239       0.21700
Nuclear contribution   :      0.19172      -0.78220      -0.15775
                        -----------------------------------------
Total Dipole Moment    :     -0.20217      -0.56981       0.05925
                        -----------------------------------------
Magnitude (a.u.)       :      0.60751
Magnitude (Debye)      :      1.54416

CHEMICAL SHIELDING SUMMARY (ppm)
--------------------------

  Nucleus  Element    Isotropic     Anisotropy
  -------  -------  ------------   ------------
      0       C           47.983        154.233
      1       C           58.001        146.986
      2       C           60.767        171.275
      3       C           55.413        140.064
      4       C           42.087        156.097
      5       C           32.202         96.742
      6       O          224.304         54.811
      7       C          170.237         38.458
      8       H           29.623          7.012
      9       H           29.246          8.276
     10       H           28.882          7.924
     11       C          148.930         21.505
     12       C          145.279         25.514
     13       C          160.571         41.476
     14       H           29.897          6.756
     15       H           30.538          8.523
     16       H           29.422          7.288
     17       C          150.422         50.063
     18       H           30.119          6.426
     19       H           29.844          7.040
     20       H           30.444          7.292
     21       C          158.612         43.444
     22       H           29.898          6.456
     23       H           30.288          8.819
     24       H           30.503          7.270
     25       C          160.272         44.725
     26       H           29.589          6.804
     27       H           30.350          8.241
     28       H           30.155          7.316
     29       C          157.130         44.182
     30       H           30.420          8.378
     31       H           30.173          8.614
     32       H           30.310          7.126
     33       C          150.213         49.718
     34       H           30.025          6.805
     35       H           29.574          7.569
     36       H           30.695          7.696
     37       H           23.776         12.888
     38       H           24.016         12.240
     39       H           26.591         13.265

                             ****ORCA TERMINATED NORMALLY****
TOTAL RUN TIME: 0 days 6 hours 45 minutes 42 seconds 630 msec
