                         Program Version 4.0.0.2 - RELEASE -
|  1> !aug-cc-pVDZ B3LYP NMR
|  2>
|  3> *xyzfile 0 1 guess.xyz
|  4>
|  5>
|  6>                          ****END OF INPUT****

CARTESIAN COORDINATES (ANGSTROEM)
---------------------------------
  C    -12.484130   -1.238870    7.338640
  C    -12.433610    0.055840    6.518580
  H    -12.810520   -1.051530    8.367000
  H    -11.500790   -1.718880    7.389660
  H    -13.196770   -1.948420    6.903570
  C    -11.553670    1.104750    7.208880
  H    -11.890840    1.302010    8.232030
  H    -11.590990    2.059360    6.672320
  H    -10.510000    0.776820    7.265160
  C    -11.839560   -0.256900    5.137650
  H    -10.821490   -0.653560    5.211960
  H    -11.815170    0.642740    4.511610
  H    -12.457650   -0.988490    4.604180
  O    -13.751830    0.559030    6.253580
  C    -14.522340    0.966020    7.373790
  H    -14.678470    0.142610    8.074620
  H    -15.503190    1.283220    7.007640
  H    -14.064680    1.819650    7.879810

 Total Charge           Charge          ....    0
 Multiplicity           Mult            ....    1
 Number of Electrons    NEL             ....   50
 Basis Dimension        Dim             ....  246

ORBITAL ENERGIES
----------------

  NO   OCC          E(Eh)            E(eV)
   0   2.0000     -19.140417      -520.8372
   1   2.0000     -10.237983      -278.5897
   2   2.0000     -10.218306      -278.0543
   3   2.0000     -10.171109      -276.7699
   4   2.0000     -10.170692      -276.7586
   5   2.0000     -10.166700      -276.6500
   6   2.0000      -1.027267       -27.9533
   7   2.0000      -0.797177       -21.6923
   8   2.0000      -0.696015       -18.9395
   9   2.0000      -0.690887       -18.8000
  10   2.0000      -0.670651       -18.2493
  11   2.0000      -0.549529       -14.9534
  12   2.0000      -0.483380       -13.1534
  13   2.0000      -0.462452       -12.5840
  14   2.0000      -0.460009       -12.5175
  15   2.0000      -0.430001       -11.7009
  16   2.0000      -0.411503       -11.1976
  17   2.0000      -0.397836       -10.8257
  18   2.0000      -0.382994       -10.4218
  19   2.0000      -0.374077       -10.1792
  20   2.0000      -0.360703        -9.8152
  21   2.0000      -0.342658        -9.3242
  22   2.0000      -0.341856        -9.3024
  23   2.0000      -0.299104        -8.1390
  24   2.0000      -0.255161        -6.9433
  25   0.0000      -0.009334        -0.2540
  26   0.0000       0.005692         0.1549
  27   0.0000       0.012868         0.3502
  28   0.0000       0.015748         0.4285
  29   0.0000       0.029905         0.8138

MULLIKEN ATOMIC CHARGES
-----------------------
   0 C :    1.625024
   1 C :   -1.736813
   2 H :   -0.334497
   3 H :   -0.261519
   4 H :   -0.243533
   5 C :    1.651819
   6 H :   -0.350259
   7 H :   -0.247151
   8 H :   -0.244945
   9 C :    1.184667
  10 H :   -0.268504
  11 H :   -0.245135
  12 H :   -0.250603
  13 O :   -0.538267
  14 C :    1.304030
  15 H :   -0.274387
  16 H :   -0.443140
  17 H :   -0.326787
Sum of atomic charges:    0.0000000

LOEWDIN ATOMIC CHARGES
----------------------
   0 C :   -0.357822
   1 C :   -2.135589
   2 H :    0.286963
   3 H :    0.294335
   4 H :    0.301688
   5 C :   -0.360365
   6 H :    0.287114
   7 H :    0.301531
   8 H :    0.294185
   9 C :   -0.314189
  10 H :    0.300693
  11 H :    0.298219
  12 H :    0.297847
  13 O :    0.395445
  14 C :   -0.548282
  15 H :    0.223078
  16 H :    0.211625
  17 H :    0.223525

  Mayer bond orders larger than 0.1
B(  0-C ,  1-C ) :   1.0976 B(  0-C ,  2-H ) :   0.5307 B(  0-C ,  3-H ) :   0.6158
B(  0-C ,  4-H ) :   0.5345 B(  0-C , 15-H ) :  -0.1055 B(  1-C ,  2-H ) :   0.3257
B(  1-C ,  3-H ) :   0.2400 B(  1-C ,  4-H ) :   0.3283 B(  1-C ,  5-C ) :   1.1153
B(  1-C ,  6-H ) :   0.3792 B(  1-C ,  7-H ) :   0.2890 B(  1-C ,  8-H ) :   0.2396
B(  1-C ,  9-C ) :   1.5578 B(  1-C , 10-H ) :   0.2781 B(  1-C , 11-H ) :   0.4122
B(  1-C , 12-H ) :   0.3910 B(  1-C , 15-H ) :   0.1079 B(  1-C , 17-H ) :   0.1250
B(  2-H ,  3-H ) :  -0.1186 B(  2-H ,  4-H ) :  -0.1464 B(  3-H ,  4-H ) :  -0.1281
B(  5-C ,  6-H ) :   0.5187 B(  5-C ,  7-H ) :   0.5324 B(  5-C ,  8-H ) :   0.6049
B(  5-C , 17-H ) :  -0.1151 B(  6-H ,  7-H ) :  -0.1479 B(  6-H ,  8-H ) :  -0.1191
B(  7-H ,  8-H ) :  -0.1326 B(  9-C , 10-H ) :   0.6196 B(  9-C , 11-H ) :   0.5873
B(  9-C , 12-H ) :   0.5983 B( 10-H , 11-H ) :  -0.1197 B( 10-H , 12-H ) :  -0.1127
B( 11-H , 12-H ) :  -0.1235 B( 13-O , 14-C ) :   0.9969 B( 14-C , 15-H ) :   0.8430
B( 14-C , 16-H ) :   0.7946 B( 14-C , 17-H ) :   0.8372 B( 15-H , 16-H ) :  -0.1125
B( 15-H , 17-H ) :  -0.1052 B( 16-H , 17-H ) :  -0.1166

FINAL SINGLE POINT ENERGY      -272.821402030849

DIPOLE MOMENT
-------------
                                X             Y             Z
Electronic contribution:     -2.16134       0.71323      -1.72755
Nuclear contribution   :      2.37446      -0.75662       2.17926
                        -----------------------------------------
Total Dipole Moment    :      0.21312      -0.04339       0.45171
                        -----------------------------------------
Magnitude (a.u.)       :      0.50134
Magnitude (Debye)      :      1.27432

CHEMICAL SHIELDING SUMMARY (ppm)
--------------------------

  Nucleus  Element    Isotropic     Anisotropy
  -------  -------  ------------   ------------
      0       C          168.069         39.629
      1       C          117.729         59.455
      2       H           30.119          6.792
      3       H           30.651          7.678
      4       H           30.733          8.357
      5       C          167.675         39.153
      6       H           30.079          6.883
      7       H           30.677          8.460
      8       H           30.635          7.744
      9       C          160.400         48.279
     10       H           30.668          8.139
     11       H           30.453          7.674
     12       H           30.445          7.826
     13       O          273.002         93.562
     14       C          144.501         72.314
     15       H           28.486          8.567
     16       H           28.365          8.882
     17       H           28.377          8.842

                             ****ORCA TERMINATED NORMALLY****
TOTAL RUN TIME: 0 days 0 hours 12 minutes 23 seconds 899 msec
