                         Program Version 4.0.0.2 - RELEASE -
|  1> !cc-pvdz BP86 NMR
|  2>
|  3> *xyzfile 0 1 guess.xyz
|  4>
|  5>
|  6>                          ****END OF INPUT****

CARTESIAN COORDINATES (ANGSTROEM)
---------------------------------
  C     -5.855260    5.927550    0.121830
  C     -4.648140    4.989110    0.105650
  C     -6.976200    5.166380    0.123700
  H     -5.658460    6.992790    0.130930
  O     -8.356250    5.386040    0.137790
  C     -6.539750    3.719470    0.127870
  O     -5.119760    3.715010    0.067510
  O     -3.473780    5.245140    0.118960
  H     -8.863490    6.227590    0.150790
  H     -6.881780    3.130070   -0.725970
  H     -6.798910    3.189600    1.046600

 Total Charge           Charge          ....    0
 Multiplicity           Mult            ....    1
 Number of Electrons    NEL             ....   52
 Basis Dimension        Dim             ....  118

ORBITAL ENERGIES
----------------

  NO   OCC          E(Eh)            E(eV)
   0   2.0000     -18.846016      -512.8262
   1   2.0000     -18.825828      -512.2768
   2   2.0000     -18.758846      -510.4541
   3   2.0000     -10.023933      -272.7651
   4   2.0000     -10.014815      -272.5170
   5   2.0000      -9.987720      -271.7797
   6   2.0000      -9.929966      -270.2081
   7   2.0000      -1.018698       -27.7202
   8   2.0000      -0.981069       -26.6962
   9   2.0000      -0.932512       -25.3750
  10   2.0000      -0.740823       -20.1588
  11   2.0000      -0.671205       -18.2644
  12   2.0000      -0.590490       -16.0681
  13   2.0000      -0.520291       -14.1579
  14   2.0000      -0.491852       -13.3840
  15   2.0000      -0.455800       -12.4030
  16   2.0000      -0.449244       -12.2245
  17   2.0000      -0.387631       -10.5480
  18   2.0000      -0.363083        -9.8800
  19   2.0000      -0.362410        -9.8617
  20   2.0000      -0.348985        -9.4964
  21   2.0000      -0.339587        -9.2406
  22   2.0000      -0.311550        -8.4777
  23   2.0000      -0.252418        -6.8686
  24   2.0000      -0.231133        -6.2894
  25   2.0000      -0.219803        -5.9811
  26   0.0000      -0.058192        -1.5835
  27   0.0000      -0.010966        -0.2984
  28   0.0000       0.038536         1.0486
  29   0.0000       0.049118         1.3366
  30   0.0000       0.074404         2.0246

MULLIKEN ATOMIC CHARGES
-----------------------
   0 C :   -0.061492
   1 C :    0.141182
   2 C :    0.009365
   3 H :    0.008080
   4 O :   -0.206200
   5 C :    0.178861
   6 O :   -0.196750
   7 O :   -0.191515
   8 H :    0.180684
   9 H :    0.068365
  10 H :    0.069419
Sum of atomic charges:   -0.0000000

LOEWDIN ATOMIC CHARGES
----------------------
   0 C :   -0.117459
   1 C :   -0.187959
   2 C :   -0.044452
   3 H :    0.028512
   4 O :    0.053106
   5 C :   -0.000405
   6 O :    0.107955
   7 O :   -0.009054
   8 H :    0.087000
   9 H :    0.040968
  10 H :    0.041787

  Mayer bond orders larger than 0.1
B(  0-C ,  1-C ) :   1.0100 B(  0-C ,  2-C ) :   1.6248 B(  0-C ,  3-H ) :   0.9661
B(  1-C ,  6-O ) :   1.1521 B(  1-C ,  7-O ) :   2.1992 B(  2-C ,  4-O ) :   1.2305
B(  2-C ,  5-C ) :   1.0319 B(  4-O ,  8-H ) :   0.9561 B(  5-C ,  6-O ) :   1.0319
B(  5-C ,  9-H ) :   0.9283 B(  5-C , 10-H ) :   0.9250

FINAL SINGLE POINT ENERGY      -380.516616292210

DIPOLE MOMENT
-------------
                                X             Y             Z
Electronic contribution:      2.37171       0.36546      -0.09269
Nuclear contribution   :     -4.39526       0.06331       0.13171
                        -----------------------------------------
Total Dipole Moment    :     -2.02355       0.42877       0.03902
                        -----------------------------------------
Magnitude (a.u.)       :      2.06884
Magnitude (Debye)      :      5.25858

CHEMICAL SHIELDING SUMMARY (ppm)
--------------------------

  Nucleus  Element    Isotropic     Anisotropy
  -------  -------  ------------   ------------
      0       C           94.243         86.570
      1       C           32.252         76.943
      2       C           24.114        104.939
      3       H           26.644          3.581
      4       O          204.413        121.058
      5       C          124.036         55.086
      6       O          127.249        186.147
      7       O          -41.460        452.892
      8       H           25.697         11.532
      9       H           26.937          5.933
     10       H           26.916          6.073

                             ****ORCA TERMINATED NORMALLY****
TOTAL RUN TIME: 0 days 0 hours 0 minutes 33 seconds 743 msec
