                         Program Version 4.0.0.2 - RELEASE -
|  1> !cc-pvdz BP86 NMR
|  2>
|  3> *xyzfile 0 1 guess.xyz
|  4>
|  5>
|  6>                          ****END OF INPUT****

CARTESIAN COORDINATES (ANGSTROEM)
---------------------------------
  C    -16.099780    3.119650    8.933150
  C    -15.552520    4.506190    8.923140
  H    -15.461950    2.410220    9.472710
  H    -16.222930    2.699550    7.928370
  H    -17.086290    3.045960    9.405450
  N    -15.124780    5.583490    8.914060

 Total Charge           Charge          ....    0
 Multiplicity           Mult            ....    1
 Number of Electrons    NEL             ....   22
 Basis Dimension        Dim             ....   57

ORBITAL ENERGIES
----------------

  NO   OCC          E(Eh)            E(eV)
   0   2.0000     -14.013457      -381.3256
   1   2.0000      -9.968704      -271.2622
   2   2.0000      -9.957959      -270.9699
   3   2.0000      -0.826712       -22.4960
   4   2.0000      -0.703600       -19.1459
   5   2.0000      -0.473981       -12.8977
   6   2.0000      -0.410342       -11.1660
   7   2.0000      -0.410225       -11.1628
   8   2.0000      -0.309612        -8.4250
   9   2.0000      -0.293976        -7.9995
  10   2.0000      -0.293917        -7.9979
  11   0.0000      -0.004539        -0.1235
  12   0.0000      -0.004243        -0.1154
  13   0.0000       0.029387         0.7997
  14   0.0000       0.104858         2.8533
  15   0.0000       0.105451         2.8695

MULLIKEN ATOMIC CHARGES
-----------------------
   0 C :   -0.037489
   1 C :   -0.131965
   2 H :    0.091145
   3 H :    0.089461
   4 H :    0.089067
   5 N :   -0.100219
Sum of atomic charges:   -0.0000000

LOEWDIN ATOMIC CHARGES
----------------------
   0 C :   -0.100022
   1 C :   -0.094616
   2 H :    0.064977
   3 H :    0.064642
   4 H :    0.064743
   5 N :    0.000276

  Mayer bond orders larger than 0.1
B(  0-C ,  1-C ) :   1.0970 B(  0-C ,  2-H ) :   0.9414 B(  0-C ,  3-H ) :   0.9417
B(  0-C ,  4-H ) :   0.9413 B(  1-C ,  5-N ) :   3.1991

FINAL SINGLE POINT ENERGY      -132.757603225773

DIPOLE MOMENT
-------------
                                X             Y             Z
Electronic contribution:      1.25444       3.18325      -0.02230
Nuclear contribution   :     -1.79427      -4.54659       0.03267
                        -----------------------------------------
Total Dipole Moment    :     -0.53983      -1.36334       0.01037
                        -----------------------------------------
Magnitude (a.u.)       :      1.46637
Magnitude (Debye)      :      3.72721

CHEMICAL SHIELDING SUMMARY (ppm)
--------------------------

  Nucleus  Element    Isotropic     Anisotropy
  -------  -------  ------------   ------------
      0       C          189.543         27.733
      1       C           88.722        298.610
      2       H           29.843          9.039
      3       H           29.840          9.102
      4       H           29.831          9.037
      5       N           -2.216        477.220

                             ****ORCA TERMINATED NORMALLY****
TOTAL RUN TIME: 0 days 0 hours 0 minutes 5 seconds 684 msec
