                         Program Version 4.0.0.2 - RELEASE -
|  1> !cc-pvdz OLYP NMR
|  2>
|  3> *xyzfile 0 1 guess.xyz
|  4>
|  5>
|  6>                          ****END OF INPUT****

CARTESIAN COORDINATES (ANGSTROEM)
---------------------------------
  C     -5.642670    2.695000   -0.275860
  N     -5.945500    1.592440   -0.436880
  C     -5.279630    4.135020   -0.048700
  C     -3.892140    4.583340   -0.804690
  H     -5.263580    4.286560    1.051470
  H     -6.166320    4.731720   -0.349450
  H     -2.990370    4.021870   -0.492910
  H     -3.593680    5.642630   -0.670970
  H     -3.901970    4.456970   -1.904450

 Total Charge           Charge          ....    0
 Multiplicity           Mult            ....    1
 Number of Electrons    NEL             ....   30
 Basis Dimension        Dim             ....   81

ORBITAL ENERGIES
----------------

  NO   OCC          E(Eh)            E(eV)
   0   2.0000     -13.998688      -380.9237
   1   2.0000      -9.982364      -271.6339
   2   2.0000      -9.945460      -270.6297
   3   2.0000      -9.945172      -270.6219
   4   2.0000      -0.821316       -22.3491
   5   2.0000      -0.713536       -19.4163
   6   2.0000      -0.613620       -16.6975
   7   2.0000      -0.452148       -12.3036
   8   2.0000      -0.410983       -11.1834
   9   2.0000      -0.380494       -10.3538
  10   2.0000      -0.346090        -9.4176
  11   2.0000      -0.337807        -9.1922
  12   2.0000      -0.295991        -8.0543
  13   2.0000      -0.282436        -7.6855
  14   2.0000      -0.278590        -7.5808
  15   0.0000      -0.001315        -0.0358
  16   0.0000       0.013857         0.3771
  17   0.0000       0.032115         0.8739
  18   0.0000       0.059270         1.6128
  19   0.0000       0.076854         2.0913

MULLIKEN ATOMIC CHARGES
-----------------------
   0 C :   -0.043481
   1 N :   -0.143838
   2 C :   -0.018205
   3 C :   -0.004654
   4 H :    0.059811
   5 H :    0.058617
   6 H :    0.032133
   7 H :    0.020273
   8 H :    0.039344
Sum of atomic charges:   -0.0000000

LOEWDIN ATOMIC CHARGES
----------------------
   0 C :   -0.088137
   1 N :   -0.010231
   2 C :   -0.065353
   3 C :   -0.050447
   4 H :    0.056305
   5 H :    0.056338
   6 H :    0.034310
   7 H :    0.031689
   8 H :    0.035525

  Mayer bond orders larger than 0.1
B(  0-C ,  1-N ) :   3.1560 B(  0-C ,  2-C ) :   1.0407 B(  2-C ,  3-C ) :   1.0431
B(  2-C ,  4-H ) :   0.9286 B(  2-C ,  5-H ) :   0.9287 B(  3-C ,  6-H ) :   0.9726
B(  3-C ,  7-H ) :   0.9700 B(  3-C ,  8-H ) :   0.9733

FINAL SINGLE POINT ENERGY      -172.005301719951

DIPOLE MOMENT
-------------
                                X             Y             Z
Electronic contribution:     -3.11748      -4.74740       0.49811
Nuclear contribution   :      3.56232       6.13868      -0.34079
                        -----------------------------------------
Total Dipole Moment    :      0.44483       1.39127       0.15731
                        -----------------------------------------
Magnitude (a.u.)       :      1.46910
Magnitude (Debye)      :      3.73417

CHEMICAL SHIELDING SUMMARY (ppm)
--------------------------

  Nucleus  Element    Isotropic     Anisotropy
  -------  -------  ------------   ------------
      0       C           86.861        303.101
      1       N            7.002        448.877
      2       C          171.111         26.251
      3       C          174.325         34.213
      4       H           28.939          7.714
      5       H           28.953          7.660
      6       H           29.909          8.168
      7       H           30.083          9.556
      8       H           29.906          8.157

                             ****ORCA TERMINATED NORMALLY****
TOTAL RUN TIME: 0 days 0 hours 0 minutes 11 seconds 915 msec
