                         Program Version 4.0.0.2 - RELEASE -
|  1> !cc-pvdz BP86 NMR
|  2>
|  3> *xyzfile 0 1 guess.xyz
|  4>
|  5>
|  6>                          ****END OF INPUT****

CARTESIAN COORDINATES (ANGSTROEM)
---------------------------------
  C    -16.991890    1.956390    9.165270
  C    -15.904190    1.392230    8.492230
  C    -14.806770    2.221640    8.088330
  C    -14.715920    3.623870    8.317250
  C    -15.852940    4.151090    9.008520
  C    -16.958470    3.318820    9.416050
  O    -18.047700    3.840330   10.081500
  H    -17.916150    4.792320   10.200820
  H    -17.838070    1.342650    9.481790
  H    -15.900230    5.197230    9.238780
  H    -15.920200    0.314970    8.288560
  H    -13.994780    1.701160    7.566340
  N    -13.592790    4.385730    7.886770
  H    -12.856820    3.847080    7.400490
  H    -13.302750    5.365620    7.929680

 Total Charge           Charge          ....    0
 Multiplicity           Mult            ....    1
 Number of Electrons    NEL             ....   58
 Basis Dimension        Dim             ....  147

ORBITAL ENERGIES
----------------

  NO   OCC          E(Eh)            E(eV)
   0   2.0000     -18.807103      -511.7673
   1   2.0000     -14.030109      -381.7787
   2   2.0000      -9.965472      -271.1743
   3   2.0000      -9.964374      -271.1444
   4   2.0000      -9.911647      -269.7096
   5   2.0000      -9.905477      -269.5417
   6   2.0000      -9.902399      -269.4580
   7   2.0000      -9.891232      -269.1541
   8   2.0000      -0.962166       -26.1819
   9   2.0000      -0.823028       -22.3957
  10   2.0000      -0.746279       -20.3073
  11   2.0000      -0.661343       -17.9961
  12   2.0000      -0.649296       -17.6683
  13   2.0000      -0.559707       -15.2304
  14   2.0000      -0.535740       -14.5782
  15   2.0000      -0.485624       -13.2145
  16   2.0000      -0.465405       -12.6643
  17   2.0000      -0.427694       -11.6381
  18   2.0000      -0.418654       -11.3922
  19   2.0000      -0.389349       -10.5947
  20   2.0000      -0.364914        -9.9298
  21   2.0000      -0.349708        -9.5160
  22   2.0000      -0.327216        -8.9040
  23   2.0000      -0.306420        -8.3381
  24   2.0000      -0.301940        -8.2162
  25   2.0000      -0.301520        -8.2048
  26   2.0000      -0.249542        -6.7904
  27   2.0000      -0.188022        -5.1163
  28   2.0000      -0.168673        -4.5898
  29   0.0000      -0.024395        -0.6638
  30   0.0000      -0.004023        -0.1095
  31   0.0000       0.029951         0.8150
  32   0.0000       0.035504         0.9661
  33   0.0000       0.054578         1.4851

MULLIKEN ATOMIC CHARGES
-----------------------
   0 C :    0.012019
   1 C :    0.025828
   2 C :   -0.003095
   3 C :    0.034657
   4 C :   -0.001382
   5 C :    0.045884
   6 O :   -0.167335
   7 H :    0.143061
   8 H :   -0.020569
   9 H :   -0.044451
  10 H :   -0.013544
  11 H :   -0.034251
  12 N :   -0.167295
  13 H :    0.095455
  14 H :    0.095017
Sum of atomic charges:   -0.0000000

LOEWDIN ATOMIC CHARGES
----------------------
   0 C :   -0.080859
   1 C :   -0.024808
   2 C :   -0.082298
   3 C :   -0.034355
   4 C :   -0.105979
   5 C :   -0.047646
   6 O :    0.072549
   7 H :    0.055304
   8 H :    0.028452
   9 H :    0.008494
  10 H :    0.032291
  11 H :    0.017047
  12 N :    0.037114
  13 H :    0.063015
  14 H :    0.061678

  Mayer bond orders larger than 0.1
B(  0-C ,  1-C ) :   1.4669 B(  0-C ,  5-C ) :   1.4017 B(  0-C ,  8-H ) :   0.9205
B(  1-C ,  2-C ) :   1.4777 B(  1-C , 10-H ) :   0.9281 B(  2-C ,  3-C ) :   1.3341
B(  2-C , 11-H ) :   0.9190 B(  3-C ,  4-C ) :   1.3483 B(  3-C , 12-N ) :   1.1839
B(  4-C ,  5-C ) :   1.3604 B(  4-C ,  9-H ) :   0.9099 B(  5-C ,  6-O ) :   1.1943
B(  6-O ,  7-H ) :   0.9976 B( 12-N , 13-H ) :   0.9684 B( 12-N , 14-H ) :   0.9654

FINAL SINGLE POINT ENERGY      -362.839312183514

DIPOLE MOMENT
-------------
                                X             Y             Z
Electronic contribution:     -2.30267       0.52502       1.29795
Nuclear contribution   :      3.11414       0.37497      -1.53542
                        -----------------------------------------
Total Dipole Moment    :      0.81147       0.89999      -0.23747
                        -----------------------------------------
Magnitude (a.u.)       :      1.23485
Magnitude (Debye)      :      3.13874

CHEMICAL SHIELDING SUMMARY (ppm)
--------------------------

  Nucleus  Element    Isotropic     Anisotropy
  -------  -------  ------------   ------------
      0       C           89.575        126.466
      1       C           62.762        160.611
      2       C           87.891        117.560
      3       C           48.281        142.002
      4       C           94.986         92.070
      5       C           37.271        124.333
      6       O          208.996         57.912
      7       H           28.304         11.056
      8       H           25.147          3.921
      9       H           26.397          6.033
     10       H           24.251          4.065
     11       H           25.625          4.947
     12       N          197.695         62.793
     13       H           28.530         11.999
     14       H           27.749         11.960

                             ****ORCA TERMINATED NORMALLY****
TOTAL RUN TIME: 0 days 0 hours 1 minutes 2 seconds 504 msec
