                         Program Version 4.0.0.2 - RELEASE -
|  1> !cc-pvdz BP86 NMR
|  2>
|  3> *xyzfile 0 1 guess.xyz
|  4>
|  5>
|  6>                          ****END OF INPUT****

CARTESIAN COORDINATES (ANGSTROEM)
---------------------------------
  C    -16.979860    2.292040    9.225100
  C    -15.907740    1.717900    8.558130
  C    -14.855330    2.542620    8.176570
  C    -14.874550    3.927780    8.459020
  C    -15.950060    4.532760    9.133800
  C    -16.994560    3.665290    9.502860
  O    -18.109760    4.108520   10.166330
  H    -17.996220    5.055150   10.293900
  H    -17.813240    1.665840    9.532540
  H    -14.021180    4.516920    8.133950
  H    -15.898280    0.651030    8.343350
  H    -14.012690    2.095370    7.653150
  N    -15.956810    5.898300    9.405930
  H    -15.185980    6.493290    9.124680
  H    -16.700820    6.383550    9.885870

 Total Charge           Charge          ....    0
 Multiplicity           Mult            ....    1
 Number of Electrons    NEL             ....   58
 Basis Dimension        Dim             ....  147

ORBITAL ENERGIES
----------------

  NO   OCC          E(Eh)            E(eV)
   0   2.0000     -18.810240      -511.8526
   1   2.0000     -14.035055      -381.9133
   2   2.0000      -9.957707      -270.9630
   3   2.0000      -9.952803      -270.8295
   4   2.0000      -9.904093      -269.5041
   5   2.0000      -9.897494      -269.3245
   6   2.0000      -9.897080      -269.3132
   7   2.0000      -9.893696      -269.2212
   8   2.0000      -0.973402       -26.4876
   9   2.0000      -0.840956       -22.8836
  10   2.0000      -0.754964       -20.5436
  11   2.0000      -0.662060       -18.0156
  12   2.0000      -0.655180       -17.8283
  13   2.0000      -0.558822       -15.2063
  14   2.0000      -0.543517       -14.7899
  15   2.0000      -0.506212       -13.7747
  16   2.0000      -0.470014       -12.7897
  17   2.0000      -0.439819       -11.9681
  18   2.0000      -0.411881       -11.2079
  19   2.0000      -0.388611       -10.5746
  20   2.0000      -0.371090       -10.0979
  21   2.0000      -0.363569        -9.8932
  22   2.0000      -0.334707        -9.1078
  23   2.0000      -0.309914        -8.4332
  24   2.0000      -0.296618        -8.0714
  25   2.0000      -0.293196        -7.9783
  26   2.0000      -0.268838        -7.3154
  27   2.0000      -0.194550        -5.2940
  28   2.0000      -0.163226        -4.4416
  29   0.0000      -0.019635        -0.5343
  30   0.0000      -0.005785        -0.1574
  31   0.0000      -0.001304        -0.0355
  32   0.0000       0.053121         1.4455
  33   0.0000       0.067903         1.8477

MULLIKEN ATOMIC CHARGES
-----------------------
   0 C :    0.029502
   1 C :    0.023155
   2 C :    0.012397
   3 C :    0.019519
   4 C :   -0.010783
   5 C :    0.026332
   6 O :   -0.144990
   7 H :    0.123866
   8 H :   -0.019149
   9 H :   -0.033594
  10 H :   -0.030615
  11 H :   -0.031943
  12 N :   -0.125449
  13 H :    0.097430
  14 H :    0.064321
Sum of atomic charges:    0.0000000

LOEWDIN ATOMIC CHARGES
----------------------
   0 C :   -0.049167
   1 C :   -0.057565
   2 C :   -0.050093
   3 C :   -0.059929
   4 C :   -0.084512
   5 C :   -0.079413
   6 O :    0.080734
   7 H :    0.038463
   8 H :    0.030022
   9 H :    0.020596
  10 H :    0.026338
  11 H :    0.024709
  12 N :    0.057647
  13 H :    0.061623
  14 H :    0.040546

  Mayer bond orders larger than 0.1
B(  0-C ,  1-C ) :   1.4680 B(  0-C ,  5-C ) :   1.4370 B(  0-C ,  8-H ) :   0.9126
B(  1-C ,  2-C ) :   1.4595 B(  1-C , 10-H ) :   0.9304 B(  2-C ,  3-C ) :   1.4770
B(  2-C , 11-H ) :   0.9262 B(  3-C ,  4-C ) :   1.3587 B(  3-C ,  9-H ) :   0.9176
B(  4-C ,  5-C ) :   1.2369 B(  4-C , 12-N ) :   1.2284 B(  5-C ,  6-O ) :   1.2315
B(  6-O ,  7-H ) :   1.0083 B( 12-N , 13-H ) :   0.9581 B( 12-N , 14-H ) :   0.9586

FINAL SINGLE POINT ENERGY      -362.841679705775

DIPOLE MOMENT
-------------
                                X             Y             Z
Electronic contribution:     -1.83687       0.12390       0.97251
Nuclear contribution   :      1.97860       1.16144      -0.79391
                        -----------------------------------------
Total Dipole Moment    :      0.14172       1.28534       0.17860
                        -----------------------------------------
Magnitude (a.u.)       :      1.30540
Magnitude (Debye)      :      3.31807

CHEMICAL SHIELDING SUMMARY (ppm)
--------------------------

  Nucleus  Element    Isotropic     Anisotropy
  -------  -------  ------------   ------------
      0       C           81.483        131.733
      1       C           77.391        148.149
      2       C           75.638        150.144
      3       C           84.301        124.303
      4       C           69.377        126.034
      5       C           56.050        106.172
      6       O          238.034         82.909
      7       H           29.453         11.336
      8       H           24.792          5.142
      9       H           25.273          5.705
     10       H           24.877          3.399
     11       H           24.893          3.788
     12       N          214.581         50.185
     13       H           28.550         12.179
     14       H           29.368         10.925

                             ****ORCA TERMINATED NORMALLY****
TOTAL RUN TIME: 0 days 0 hours 1 minutes 9 seconds 946 msec
