                         Program Version 4.0.0.2 - RELEASE -
|  1> !aug-cc-pVDZ B3LYP NMR
|  2>
|  3> *xyzfile 0 1 guess.xyz
|  4>
|  5>
|  6>                          ****END OF INPUT****

CARTESIAN COORDINATES (ANGSTROEM)
---------------------------------
  C    -16.979860    2.292040    9.225100
  C    -15.907740    1.717900    8.558130
  C    -14.855330    2.542620    8.176570
  C    -14.874550    3.927780    8.459020
  C    -15.950060    4.532760    9.133800
  C    -16.994560    3.665290    9.502860
  O    -18.109760    4.108520   10.166330
  H    -17.996220    5.055150   10.293900
  H    -17.813240    1.665840    9.532540
  H    -14.021180    4.516920    8.133950
  H    -15.898280    0.651030    8.343350
  H    -14.012690    2.095370    7.653150
  N    -15.956810    5.898300    9.405930
  H    -15.185980    6.493290    9.124680
  H    -16.700820    6.383550    9.885870

 Total Charge           Charge          ....    0
 Multiplicity           Mult            ....    1
 Number of Electrons    NEL             ....   58
 Basis Dimension        Dim             ....  247

ORBITAL ENERGIES
----------------

  NO   OCC          E(Eh)            E(eV)
   0   2.0000     -19.179719      -521.9067
   1   2.0000     -14.356125      -390.6500
   2   2.0000     -10.240111      -278.6476
   3   2.0000     -10.234126      -278.4847
   4   2.0000     -10.183964      -277.1198
   5   2.0000     -10.177617      -276.9470
   6   2.0000     -10.177076      -276.9323
   7   2.0000     -10.173481      -276.8345
   8   2.0000      -1.069018       -29.0895
   9   2.0000      -0.926376       -25.2080
  10   2.0000      -0.836716       -22.7682
  11   2.0000      -0.737900       -20.0793
  12   2.0000      -0.730210       -19.8700
  13   2.0000      -0.623964       -16.9789
  14   2.0000      -0.608622       -16.5614
  15   2.0000      -0.564398       -15.3580
  16   2.0000      -0.526438       -14.3251
  17   2.0000      -0.496928       -13.5221
  18   2.0000      -0.468480       -12.7480
  19   2.0000      -0.444030       -12.0827
  20   2.0000      -0.424846       -11.5607
  21   2.0000      -0.419299       -11.4097
  22   2.0000      -0.392494       -10.6803
  23   2.0000      -0.360930        -9.8214
  24   2.0000      -0.351412        -9.5624
  25   2.0000      -0.344380        -9.3711
  26   2.0000      -0.314800        -8.5661
  27   2.0000      -0.230724        -6.2783
  28   2.0000      -0.201674        -5.4878
  29   0.0000      -0.028972        -0.7884
  30   0.0000      -0.006287        -0.1711
  31   0.0000      -0.000590        -0.0161
  32   0.0000       0.007003         0.1906
  33   0.0000       0.014239         0.3875

MULLIKEN ATOMIC CHARGES
-----------------------
   0 C :    0.969218
   1 C :    0.671750
   2 C :    0.521177
   3 C :    1.239276
   4 C :    0.130072
   5 C :    0.571381
   6 O :   -0.569134
   7 H :    0.085388
   8 H :   -0.834858
   9 H :   -0.936236
  10 H :   -0.757078
  11 H :   -0.826272
  12 N :    0.024143
  13 H :   -0.124542
  14 H :   -0.164286
Sum of atomic charges:   -0.0000000

LOEWDIN ATOMIC CHARGES
----------------------
   0 C :   -0.198133
   1 C :   -0.297570
   2 C :   -0.274040
   3 C :   -0.193770
   4 C :   -0.768236
   5 C :   -0.775438
   6 O :    0.566460
   7 H :    0.118224
   8 H :    0.303364
   9 H :    0.299011
  10 H :    0.293343
  11 H :    0.291000
  12 N :    0.207623
  13 H :    0.233735
  14 H :    0.194426

  Mayer bond orders larger than 0.1
B(  0-C ,  1-C ) :   1.5714 B(  0-C ,  3-C ) :   0.4437 B(  0-C ,  4-C ) :  -0.2635
B(  0-C ,  5-C ) :   0.7970 B(  0-C ,  8-H ) :  -1.2693 B(  0-C ,  9-H ) :   0.1282
B(  0-C , 10-H ) :   0.4431 B(  1-C ,  2-C ) :   1.7157 B(  1-C ,  3-C ) :  -0.3748
B(  1-C ,  4-C ) :   0.2085 B(  1-C ,  8-H ) :   0.2503 B(  1-C ,  9-H ) :  -0.1455
B(  1-C , 10-H ) :  -0.4109 B(  1-C , 11-H ) :   0.3905 B(  2-C ,  3-C ) :   1.4032
B(  2-C ,  4-C ) :  -0.1522 B(  2-C ,  8-H ) :  -0.1381 B(  2-C ,  9-H ) :   0.5121
B(  2-C , 10-H ) :   0.3079 B(  2-C , 11-H ) :  -0.4482 B(  3-C ,  4-C ) :   0.7756
B(  3-C ,  5-C ) :  -0.1204 B(  3-C ,  9-H ) :  -1.1130 B(  3-C , 11-H ) :   0.3225
B(  4-C ,  5-C ) :   0.2695 B(  4-C ,  6-O ) :   0.2313 B(  4-C ,  9-H ) :   0.8803
B(  4-C , 12-N ) :   0.8553 B(  5-C ,  6-O ) :   0.2857 B(  5-C ,  8-H ) :   1.3650
B(  5-C ,  9-H ) :  -0.1361 B(  6-O ,  7-H ) :   1.0444 B(  9-H , 12-N ) :  -0.1109
B( 12-N , 13-H ) :   1.0502 B( 12-N , 14-H ) :   1.0257 B( 13-H , 14-H ) :  -0.1021

FINAL SINGLE POINT ENERGY      -362.654897567066

DIPOLE MOMENT
-------------
                                X             Y             Z
Electronic contribution:     -1.69990      -0.08767       0.86025
Nuclear contribution   :      1.97860       1.16144      -0.79391
                        -----------------------------------------
Total Dipole Moment    :      0.27869       1.07377       0.06634
                        -----------------------------------------
Magnitude (a.u.)       :      1.11132
Magnitude (Debye)      :      2.82476

CHEMICAL SHIELDING SUMMARY (ppm)
--------------------------

  Nucleus  Element    Isotropic     Anisotropy
  -------  -------  ------------   ------------
      0       C           76.357        139.377
      1       C           72.786        155.836
      2       C           70.692        158.689
      3       C           79.459        133.094
      4       C           63.679        133.775
      5       C           50.420        113.968
      6       O          238.548         69.096
      7       H           29.088         12.142
      8       H           24.488          5.644
      9       H           24.961          6.073
     10       H           24.716          3.913
     11       H           24.706          4.374
     12       N          216.823         49.532
     13       H           27.808         12.077
     14       H           28.907         11.022

                             ****ORCA TERMINATED NORMALLY****
TOTAL RUN TIME: 0 days 0 hours 14 minutes 17 seconds 699 msec
