                         Program Version 4.0.0.2 - RELEASE -
|  1> !cc-pvdz BP86 NMR
|  2>
|  3> *xyzfile 0 1 guess.xyz
|  4>
|  5>
|  6>                          ****END OF INPUT****

CARTESIAN COORDINATES (ANGSTROEM)
---------------------------------
  C     -4.942800    4.814740   -0.045420
  C     -5.903350    3.947980    0.298960
  H     -4.970490    5.841600    0.305710
  H     -4.110270    4.525380   -0.681470
  C     -5.904300    2.595700   -0.139080
  H     -6.723290    4.262630    0.935010
  N     -5.909270    1.491710   -0.493960

 Total Charge           Charge          ....    0
 Multiplicity           Mult            ....    1
 Number of Electrons    NEL             ....   28
 Basis Dimension        Dim             ....   71

ORBITAL ENERGIES
----------------

  NO   OCC          E(Eh)            E(eV)
   0   2.0000     -14.020451      -381.5159
   1   2.0000      -9.971200      -271.3301
   2   2.0000      -9.956733      -270.9365
   3   2.0000      -9.955762      -270.9101
   4   2.0000      -0.834698       -22.7133
   5   2.0000      -0.749316       -20.3899
   6   2.0000      -0.601106       -16.3569
   7   2.0000      -0.490630       -13.3507
   8   2.0000      -0.434040       -11.8108
   9   2.0000      -0.371606       -10.1119
  10   2.0000      -0.346003        -9.4152
  11   2.0000      -0.314146        -8.5483
  12   2.0000      -0.302315        -8.2264
  13   2.0000      -0.263983        -7.1834
  14   0.0000      -0.094124        -2.5613
  15   0.0000      -0.014232        -0.3873
  16   0.0000       0.060487         1.6459
  17   0.0000       0.065704         1.7879
  18   0.0000       0.065883         1.7928

MULLIKEN ATOMIC CHARGES
-----------------------
   0 C :    0.044930
   1 C :   -0.054120
   2 H :    0.053880
   3 H :    0.053782
   4 C :   -0.051657
   5 H :    0.049365
   6 N :   -0.096178
Sum of atomic charges:   -0.0000000

LOEWDIN ATOMIC CHARGES
----------------------
   0 C :    0.017565
   1 C :   -0.075422
   2 H :    0.038753
   3 H :    0.040048
   4 C :   -0.094053
   5 H :    0.054619
   6 N :    0.018490

  Mayer bond orders larger than 0.1
B(  0-C ,  1-C ) :   1.9585 B(  0-C ,  2-H ) :   0.9368 B(  0-C ,  3-H ) :   0.9430
B(  0-C ,  6-N ) :   0.1146 B(  1-C ,  4-C ) :   1.1086 B(  1-C ,  5-H ) :   0.9307
B(  4-C ,  6-N ) :   3.1396

FINAL SINGLE POINT ENERGY      -170.839371880006

DIPOLE MOMENT
-------------
                                X             Y             Z
Electronic contribution:     -0.95433      -3.21721      -0.42018
Nuclear contribution   :      1.07791       4.58903       0.78663
                        -----------------------------------------
Total Dipole Moment    :      0.12358       1.37182       0.36645
                        -----------------------------------------
Magnitude (a.u.)       :      1.42529
Magnitude (Debye)      :      3.62280

CHEMICAL SHIELDING SUMMARY (ppm)
--------------------------

  Nucleus  Element    Isotropic     Anisotropy
  -------  -------  ------------   ------------
      0       C           59.147        174.277
      1       C           86.516        128.182
      2       H           25.410          4.446
      3       H           25.172          5.522
      4       C           83.388        300.743
      5       H           25.935          3.507
      6       N          -20.359        380.235

                             ****ORCA TERMINATED NORMALLY****
TOTAL RUN TIME: 0 days 0 hours 0 minutes 9 seconds 504 msec
