                         Program Version 4.0.0.2 - RELEASE -
|  1> !aug-cc-pVDZ B3LYP NMR
|  2>
|  3> *xyzfile 0 1 guess.xyz
|  4>
|  5>
|  6>                          ****END OF INPUT****

CARTESIAN COORDINATES (ANGSTROEM)
---------------------------------
  C    -15.044710    2.469670    8.080800
  C    -14.004600    1.774380    7.467310
  C    -12.858460    2.455660    7.052210
  C    -12.739200    3.837100    7.257160
  C    -13.795980    4.532070    7.861000
  C    -14.934340    3.841410    8.271280
  O    -15.977960    4.484920    8.869120
  C    -11.521610    4.570600    6.777640
  H    -11.329870    5.455410    7.393710
  H    -11.659940    4.886200    5.739000
  H    -10.633030    3.933590    6.839700
  H    -15.758100    5.427990    8.938950
  H    -15.938870    1.945550    8.404990
  H    -14.087910    0.702450    7.309810
  H    -12.057660    1.901070    6.567900
  H    -13.719660    5.605540    8.005470

 Total Charge           Charge          ....    0
 Multiplicity           Mult            ....    1
 Number of Electrons    NEL             ....   58
 Basis Dimension        Dim             ....  256

ORBITAL ENERGIES
----------------

  NO   OCC          E(Eh)            E(eV)
   0   2.0000     -19.179849      -521.9102
   1   2.0000     -10.246658      -278.8257
   2   2.0000     -10.198286      -277.5095
   3   2.0000     -10.188534      -277.2441
   4   2.0000     -10.184472      -277.1336
   5   2.0000     -10.182430      -277.0780
   6   2.0000     -10.179009      -276.9849
   7   2.0000     -10.177066      -276.9320
   8   2.0000      -1.067546       -29.0494
   9   2.0000      -0.856415       -23.3042
  10   2.0000      -0.775367       -21.0988
  11   2.0000      -0.740867       -20.1600
  12   2.0000      -0.691524       -18.8173
  13   2.0000      -0.623517       -16.9668
  14   2.0000      -0.585894       -15.9430
  15   2.0000      -0.540411       -14.7053
  16   2.0000      -0.497985       -13.5509
  17   2.0000      -0.471768       -12.8375
  18   2.0000      -0.433795       -11.8042
  19   2.0000      -0.428731       -11.6664
  20   2.0000      -0.411514       -11.1979
  21   2.0000      -0.407014       -11.0754
  22   2.0000      -0.405191       -11.0258
  23   2.0000      -0.378399       -10.2968
  24   2.0000      -0.354537        -9.6474
  25   2.0000      -0.340178        -9.2567
  26   2.0000      -0.330705        -8.9989
  27   2.0000      -0.249733        -6.7956
  28   2.0000      -0.225139        -6.1264
  29   0.0000      -0.015882        -0.4322
  30   0.0000      -0.013294        -0.3617
  31   0.0000      -0.000236        -0.0064
  32   0.0000      -0.000085        -0.0023
  33   0.0000       0.006823         0.1857

MULLIKEN ATOMIC CHARGES
-----------------------
   0 C :    0.939954
   1 C :    0.382648
   2 C :    1.104621
   3 C :    0.400405
   4 C :    1.223363
   5 C :   -0.041407
   6 O :   -0.580521
   7 C :    0.630420
   8 H :   -0.274254
   9 H :   -0.100930
  10 H :   -0.274086
  11 H :    0.151925
  12 H :   -0.781750
  13 H :   -0.763740
  14 H :   -0.962661
  15 H :   -1.053988
Sum of atomic charges:   -0.0000000

LOEWDIN ATOMIC CHARGES
----------------------
   0 C :   -0.186909
   1 C :   -0.238807
   2 C :   -0.203732
   3 C :   -0.954977
   4 C :   -0.149894
   5 C :   -0.851436
   6 O :    0.535380
   7 C :   -0.230704
   8 H :    0.290977
   9 H :    0.308385
  10 H :    0.292525
  11 H :    0.173782
  12 H :    0.301031
  13 H :    0.299087
  14 H :    0.305489
  15 H :    0.309805

  Mayer bond orders larger than 0.1
B(  0-C ,  1-C ) :   1.6432 B(  0-C ,  2-C ) :  -0.2247 B(  0-C ,  3-C ) :   0.2101
B(  0-C ,  4-C ) :  -0.2887 B(  0-C ,  5-C ) :   1.3893 B(  0-C ,  6-O ) :  -0.1192
B(  0-C , 12-H ) :  -0.7099 B(  0-C , 13-H ) :   0.3899 B(  1-C ,  2-C ) :   1.4269
B(  1-C ,  3-C ) :  -0.3886 B(  1-C ,  5-C ) :  -0.2094 B(  1-C ,  7-C ) :   0.4892
B(  1-C , 13-H ) :  -0.3259 B(  1-C , 14-H ) :   0.3891 B(  2-C ,  3-C ) :   0.7571
B(  2-C ,  4-C ) :  -0.5270 B(  2-C ,  5-C ) :   0.1282 B(  2-C ,  7-C ) :  -0.6922
B(  2-C , 13-H ) :   0.3576 B(  2-C , 14-H ) :  -0.8538 B(  3-C ,  4-C ) :   0.8303
B(  3-C ,  7-C ) :   1.5137 B(  3-C ,  8-H ) :   0.3173 B(  3-C ,  9-H ) :   0.2769
B(  3-C , 10-H ) :   0.2666 B(  3-C , 14-H ) :   0.2749 B(  3-C , 15-H ) :   0.4157
B(  4-C ,  5-C ) :   0.5423 B(  4-C ,  6-O ) :   0.2142 B(  4-C ,  7-C ) :  -0.6300
B(  4-C , 12-H ) :   0.1317 B(  4-C , 15-H ) :  -0.9713 B(  5-C ,  6-O ) :   0.3741
B(  5-C ,  7-C ) :   0.5052 B(  5-C , 12-H ) :   0.7280 B(  5-C , 13-H ) :  -0.1316
B(  5-C , 15-H ) :   0.3813 B(  6-O , 11-H ) :   1.0196 B(  7-C ,  8-H ) :   0.5925
B(  7-C ,  9-H ) :   0.8653 B(  7-C , 10-H ) :   0.6418 B(  7-C , 14-H ) :   0.1145
B(  9-H , 10-H ) :  -0.1293

FINAL SINGLE POINT ENERGY      -346.617678413284

DIPOLE MOMENT
-------------
                                X             Y             Z
Electronic contribution:     -5.09403      -0.90263       2.29486
Nuclear contribution   :      5.49710       1.38269      -2.42124
                        -----------------------------------------
Total Dipole Moment    :      0.40308       0.48006      -0.12638
                        -----------------------------------------
Magnitude (a.u.)       :      0.63945
Magnitude (Debye)      :      1.62536

CHEMICAL SHIELDING SUMMARY (ppm)
--------------------------

  Nucleus  Element    Isotropic     Anisotropy
  -------  -------  ------------   ------------
      0       C           82.857        138.360
      1       C           62.528        171.689
      2       C           72.995        144.233
      3       C           51.111        186.577
      4       C           80.632        103.036
      5       C           37.069        133.009
      6       O          218.340         67.412
      7       C          169.583         38.559
      8       H           29.489          7.021
      9       H           29.123          7.958
     10       H           29.343          7.290
     11       H           27.783         11.883
     12       H           24.809          4.802
     13       H           24.238          4.632
     14       H           24.769          6.006
     15       H           25.110          7.056

                             ****ORCA TERMINATED NORMALLY****
TOTAL RUN TIME: 0 days 0 hours 15 minutes 19 seconds 561 msec
