                         Program Version 4.0.0.2 - RELEASE -
|  1> !cc-pvdz BP86 NMR
|  2>
|  3> *xyzfile 0 1 guess.xyz
|  4>
|  5>
|  6>                          ****END OF INPUT****

CARTESIAN COORDINATES (ANGSTROEM)
---------------------------------
  C     -6.344340    1.097480   -0.002750
  C     -5.015020    1.958450    0.017020
  H     -7.098530    1.543070    0.659040
  H     -6.264690    0.052630    0.339660
  H     -6.806680    1.034400   -0.997800
  O     -4.981790    3.179460    0.003290
  H     -4.026780    1.430760   -0.018460

 Total Charge           Charge          ....    0
 Multiplicity           Mult            ....    1
 Number of Electrons    NEL             ....   24
 Basis Dimension        Dim             ....   62

ORBITAL ENERGIES
----------------

  NO   OCC          E(Eh)            E(eV)
   0   2.0000     -18.789788      -511.2961
   1   2.0000     -10.009264      -272.3659
   2   2.0000      -9.929137      -270.1855
   3   2.0000      -0.958342       -26.0778
   4   2.0000      -0.670009       -18.2319
   5   2.0000      -0.525675       -14.3043
   6   2.0000      -0.421434       -11.4678
   7   2.0000      -0.391013       -10.6400
   8   2.0000      -0.381489       -10.3808
   9   2.0000      -0.346787        -9.4366
  10   2.0000      -0.328182        -8.9303
  11   2.0000      -0.210780        -5.7356
  12   0.0000      -0.072943        -1.9849
  13   0.0000       0.055172         1.5013
  14   0.0000       0.063898         1.7387
  15   0.0000       0.104915         2.8549
  16   0.0000       0.112712         3.0671

MULLIKEN ATOMIC CHARGES
-----------------------
   0 C :   -0.116318
   1 C :    0.091301
   2 H :    0.066200
   3 H :    0.046809
   4 H :    0.074095
   5 O :   -0.168688
   6 H :    0.006601
Sum of atomic charges:   -0.0000000

LOEWDIN ATOMIC CHARGES
----------------------
   0 C :   -0.117979
   1 C :   -0.022975
   2 H :    0.047086
   3 H :    0.038028
   4 H :    0.052758
   5 O :    0.007875
   6 H :   -0.004794

  Mayer bond orders larger than 0.1
B(  0-C ,  1-C ) :   0.9972 B(  0-C ,  2-H ) :   0.9569 B(  0-C ,  3-H ) :   0.9587
B(  0-C ,  4-H ) :   0.9508 B(  1-C ,  5-O ) :   2.2166 B(  1-C ,  6-H ) :   0.9126

FINAL SINGLE POINT ENERGY      -153.831583756435

DIPOLE MOMENT
-------------
                                X             Y             Z
Electronic contribution:      1.97374       3.10624       0.01400
Nuclear contribution   :     -2.20375      -3.98265      -0.03407
                        -----------------------------------------
Total Dipole Moment    :     -0.23001      -0.87641      -0.02007
                        -----------------------------------------
Magnitude (a.u.)       :      0.90631
Magnitude (Debye)      :      2.30367

CHEMICAL SHIELDING SUMMARY (ppm)
--------------------------

  Nucleus  Element    Isotropic     Anisotropy
  -------  -------  ------------   ------------
      0       C          163.396         50.032
      1       C           -2.069        153.598
      2       H           29.707          5.694
      3       H           29.107          4.077
      4       H           29.467          5.749
      5       O         -372.778       -981.398
      6       H           20.764          3.053

                             ****ORCA TERMINATED NORMALLY****
TOTAL RUN TIME: 0 days 0 hours 0 minutes 6 seconds 409 msec
