                         Program Version 4.0.0.2 - RELEASE -
|  1> !cc-pvdz OLYP NMR
|  2>
|  3> *xyzfile 0 1 guess.xyz
|  4>
|  5>
|  6>                          ****END OF INPUT****

CARTESIAN COORDINATES (ANGSTROEM)
---------------------------------
  C     -5.836580    1.910430   -0.257460
  C     -5.422970    3.284080    0.305630
  H     -6.186420    1.329360    0.607980
  H     -5.003540    1.334660   -0.699520
  H     -6.679420    1.899980   -0.949770
  O     -4.652250    4.189390   -0.495290
  O     -6.564510    3.870210    0.966150
  H     -4.739930    2.997410    1.089160
  C     -7.493040    4.564110    0.172040
  H     -8.440470    4.021040    0.128210
  H     -7.159700    4.784930   -0.855460
  H     -7.677790    5.516500    0.679790
  C     -4.744970    5.577430   -0.126410
  H     -3.776950    6.081570   -0.075660
  H     -5.248300    5.771300    0.837230
  H     -5.315420    6.063010   -0.920920

 Total Charge           Charge          ....    0
 Multiplicity           Mult            ....    1
 Number of Electrons    NEL             ....   50
 Basis Dimension        Dim             ....  134

ORBITAL ENERGIES
----------------

  NO   OCC          E(Eh)            E(eV)
   0   2.0000     -18.773125      -510.8427
   1   2.0000     -18.772505      -510.8258
   2   2.0000     -10.003120      -272.1987
   3   2.0000      -9.950217      -270.7592
   4   2.0000      -9.949803      -270.7479
   5   2.0000      -9.908883      -269.6344
   6   2.0000      -0.967922       -26.3385
   7   2.0000      -0.913703       -24.8631
   8   2.0000      -0.693233       -18.8638
   9   2.0000      -0.617870       -16.8131
  10   2.0000      -0.614621       -16.7247
  11   2.0000      -0.524439       -14.2707
  12   2.0000      -0.451465       -12.2850
  13   2.0000      -0.439678       -11.9642
  14   2.0000      -0.412804       -11.2330
  15   2.0000      -0.382627       -10.4118
  16   2.0000      -0.361133        -9.8269
  17   2.0000      -0.357760        -9.7351
  18   2.0000      -0.348286        -9.4774
  19   2.0000      -0.332997        -9.0613
  20   2.0000      -0.318390        -8.6638
  21   2.0000      -0.298278        -8.1166
  22   2.0000      -0.247365        -6.7311
  23   2.0000      -0.216338        -5.8868
  24   2.0000      -0.189341        -5.1522
  25   0.0000       0.039280         1.0689
  26   0.0000       0.057190         1.5562
  27   0.0000       0.072918         1.9842
  28   0.0000       0.082109         2.2343
  29   0.0000       0.086058         2.3418

MULLIKEN ATOMIC CHARGES
-----------------------
   0 C :    0.031139
   1 C :    0.265651
   2 H :    0.022127
   3 H :    0.011899
   4 H :    0.007039
   5 O :   -0.344943
   6 O :   -0.333259
   7 H :   -0.019715
   8 C :    0.167161
   9 H :   -0.003929
  10 H :    0.014440
  11 H :   -0.000747
  12 C :    0.159853
  13 H :   -0.001867
  14 H :    0.022156
  15 H :    0.002994
Sum of atomic charges:   -0.0000000

LOEWDIN ATOMIC CHARGES
----------------------
   0 C :   -0.067816
   1 C :   -0.028046
   2 H :    0.038778
   3 H :    0.028973
   4 H :    0.019291
   5 O :   -0.027643
   6 O :   -0.003383
   7 H :    0.007505
   8 C :   -0.030135
   9 H :    0.007761
  10 H :    0.012709
  11 H :    0.014387
  12 C :   -0.012076
  13 H :    0.013676
  14 H :    0.016238
  15 H :    0.009782

  Mayer bond orders larger than 0.1
B(  0-C ,  1-C ) :   1.0815 B(  0-C ,  2-H ) :   0.9549 B(  0-C ,  3-H ) :   0.9531
B(  0-C ,  4-H ) :   0.9621 B(  1-C ,  5-O ) :   1.0380 B(  1-C ,  6-O ) :   1.0086
B(  1-C ,  7-H ) :   0.9308 B(  5-O , 12-C ) :   1.0251 B(  6-O ,  8-C ) :   1.0381
B(  8-C ,  9-H ) :   0.9685 B(  8-C , 10-H ) :   0.9591 B(  8-C , 11-H ) :   0.9738
B( 12-C , 13-H ) :   0.9692 B( 12-C , 14-H ) :   0.9591 B( 12-C , 15-H ) :   0.9732

FINAL SINGLE POINT ENERGY      -308.731540392685

DIPOLE MOMENT
-------------
                                X             Y             Z
Electronic contribution:      1.87386      -0.36877       0.95889
Nuclear contribution   :     -2.11708       0.56731      -1.02978
                        -----------------------------------------
Total Dipole Moment    :     -0.24322       0.19855      -0.07090
                        -----------------------------------------
Magnitude (a.u.)       :      0.32188
Magnitude (Debye)      :      0.81814

CHEMICAL SHIELDING SUMMARY (ppm)
--------------------------

  Nucleus  Element    Isotropic     Anisotropy
  -------  -------  ------------   ------------
      0       C          171.454         34.349
      1       C           91.144         43.656
      2       H           30.317          7.719
      3       H           30.072          8.395
      4       H           30.299          6.729
      5       O          271.472        100.823
      6       O          266.566        104.841
      7       H           26.401          4.725
      8       C          143.663         66.916
      9       H           28.186          9.459
     10       H           28.095          7.522
     11       H           28.196          8.713
     12       C          141.247         75.400
     13       H           28.413          8.944
     14       H           27.525          7.226
     15       H           28.038          8.856

                             ****ORCA TERMINATED NORMALLY****
TOTAL RUN TIME: 0 days 0 hours 0 minutes 53 seconds 108 msec
