                         Program Version 4.0.0.2 - RELEASE -
|  1> !cc-pvdz BP86 NMR
|  2>
|  3> *xyzfile 0 1 guess.xyz
|  4>
|  5>
|  6>                          ****END OF INPUT****

CARTESIAN COORDINATES (ANGSTROEM)
---------------------------------
  C    -12.843110   -1.122300    6.891740
  C    -12.212950    0.071040    6.149470
  H    -13.330350   -0.881440    7.836630
  H    -12.173460   -1.982440    7.018700
  H    -13.655380   -1.512010    6.247240
  C    -11.533330    1.315160    6.751990
  H    -11.946700    1.667370    7.696340
  H    -11.690580    2.146840    6.038630
  H    -10.440420    1.239310    6.826440
  C    -11.164610   -0.526810    5.210490
  H    -10.280020   -0.808760    5.804260
  H    -10.843120    0.183530    4.444590
  H    -11.509540   -1.437880    4.713240
  O    -13.377660    0.658660    5.535080
  H    -13.902700    0.971450    6.265670

 Total Charge           Charge          ....    0
 Multiplicity           Mult            ....    1
 Number of Electrons    NEL             ....   42
 Basis Dimension        Dim             ....  120

ORBITAL ENERGIES
----------------

  NO   OCC          E(Eh)            E(eV)
   0   2.0000     -18.762810      -510.5620
   1   2.0000      -9.966199      -271.1941
   2   2.0000      -9.902182      -269.4521
   3   2.0000      -9.901662      -269.4379
   4   2.0000      -9.900763      -269.4135
   5   2.0000      -0.929306       -25.2877
   6   2.0000      -0.712885       -19.3986
   7   2.0000      -0.634153       -17.2562
   8   2.0000      -0.612360       -16.6632
   9   2.0000      -0.513082       -13.9617
  10   2.0000      -0.434576       -11.8254
  11   2.0000      -0.403462       -10.9788
  12   2.0000      -0.398990       -10.8571
  13   2.0000      -0.365366        -9.9421
  14   2.0000      -0.347534        -9.4569
  15   2.0000      -0.336215        -9.1489
  16   2.0000      -0.322446        -8.7742
  17   2.0000      -0.307013        -8.3542
  18   2.0000      -0.304710        -8.2916
  19   2.0000      -0.256161        -6.9705
  20   2.0000      -0.205127        -5.5818
  21   0.0000       0.029264         0.7963
  22   0.0000       0.064844         1.7645
  23   0.0000       0.081771         2.2251
  24   0.0000       0.091921         2.5013
  25   0.0000       0.098886         2.6908

MULLIKEN ATOMIC CHARGES
-----------------------
   0 C :    0.008735
   1 C :   -0.147038
   2 H :    0.010756
   3 H :    0.015049
   4 H :    0.041667
   5 C :    0.003366
   6 H :    0.010274
   7 H :    0.042667
   8 H :    0.015206
   9 C :    0.014788
  10 H :    0.044030
  11 H :    0.027990
  12 H :    0.021073
  13 O :   -0.234071
  14 H :    0.125508
Sum of atomic charges:   -0.0000000

LOEWDIN ATOMIC CHARGES
----------------------
   0 C :   -0.082131
   1 C :   -0.061253
   2 H :    0.019631
   3 H :    0.025543
   4 H :    0.039708
   5 C :   -0.083153
   6 H :    0.019718
   7 H :    0.039572
   8 H :    0.025484
   9 C :   -0.062133
  10 H :    0.040603
  11 H :    0.030081
  12 H :    0.027121
  13 O :   -0.006267
  14 H :    0.027476

  Mayer bond orders larger than 0.1
B(  0-C ,  1-C ) :   1.0608 B(  0-C ,  2-H ) :   0.9526 B(  0-C ,  3-H ) :   0.9524
B(  0-C ,  4-H ) :   0.9480 B(  1-C ,  5-C ) :   1.0584 B(  1-C ,  9-C ) :   1.0601
B(  1-C , 13-O ) :   1.0016 B(  5-C ,  6-H ) :   0.9511 B(  5-C ,  7-H ) :   0.9503
B(  5-C ,  8-H ) :   0.9524 B(  9-C , 10-H ) :   0.9511 B(  9-C , 11-H ) :   0.9572
B(  9-C , 12-H ) :   0.9585 B( 13-O , 14-H ) :   1.0165

FINAL SINGLE POINT ENERGY      -233.646212527947

DIPOLE MOMENT
-------------
                                X             Y             Z
Electronic contribution:     -2.48303       1.23103      -1.28124
Nuclear contribution   :      2.58376      -1.26136       1.75126
                        -----------------------------------------
Total Dipole Moment    :      0.10073      -0.03033       0.47002
                        -----------------------------------------
Magnitude (a.u.)       :      0.48165
Magnitude (Debye)      :      1.22426

CHEMICAL SHIELDING SUMMARY (ppm)
--------------------------

  Nucleus  Element    Isotropic     Anisotropy
  -------  -------  ------------   ------------
      0       C          158.687         56.693
      1       C          123.201         61.745
      2       H           30.200          7.859
      3       H           29.837          8.586
      4       H           29.311          5.933
      5       C          158.285         59.140
      6       H           30.150          7.897
      7       H           29.282          5.838
      8       H           29.895          8.438
      9       C          159.770         43.669
     10       H           30.021          6.903
     11       H           30.019          7.461
     12       H           30.199          7.593
     13       O          204.007         78.409
     14       H           31.373         10.645

                             ****ORCA TERMINATED NORMALLY****
TOTAL RUN TIME: 0 days 0 hours 0 minutes 43 seconds 771 msec
