                         Program Version 4.0.0.2 - RELEASE -
|  1> !cc-pvdz OLYP NMR
|  2>
|  3> *xyzfile 0 1 guess.xyz
|  4>
|  5>
|  6>                          ****END OF INPUT****

CARTESIAN COORDINATES (ANGSTROEM)
---------------------------------
  C     -5.186560    2.223200    3.820790
  C     -4.792690    3.653860    4.079970
  O     -4.919080    2.703800    5.144860
  H     -5.554350    4.419510    4.001630
  H     -3.793280    3.983320    3.824590
  C     -4.203470    1.217920    3.334220
  H     -6.212280    1.981030    3.577380
  H     -3.208040    1.653040    3.199280
  H     -4.526200    0.810590    2.371170
  H     -4.122550    0.387850    4.042930

 Total Charge           Charge          ....    0
 Multiplicity           Mult            ....    1
 Number of Electrons    NEL             ....   32
 Basis Dimension        Dim             ....   86

ORBITAL ENERGIES
----------------

  NO   OCC          E(Eh)            E(eV)
   0   2.0000     -18.778268      -510.9826
   1   2.0000      -9.961743      -271.0728
   2   2.0000      -9.957595      -270.9599
   3   2.0000      -9.907688      -269.6019
   4   2.0000      -0.982012       -26.7219
   5   2.0000      -0.675892       -18.3919
   6   2.0000      -0.590944       -16.0804
   7   2.0000      -0.531210       -14.4550
   8   2.0000      -0.443830       -12.0772
   9   2.0000      -0.412011       -11.2114
  10   2.0000      -0.377684       -10.2773
  11   2.0000      -0.349690        -9.5155
  12   2.0000      -0.325475        -8.8566
  13   2.0000      -0.318045        -8.6544
  14   2.0000      -0.247158        -6.7255
  15   2.0000      -0.209570        -5.7027
  16   0.0000       0.048475         1.3191
  17   0.0000       0.061011         1.6602
  18   0.0000       0.070877         1.9286
  19   0.0000       0.074970         2.0400
  20   0.0000       0.100193         2.7264

MULLIKEN ATOMIC CHARGES
-----------------------
   0 C :   -0.028346
   1 C :    0.193081
   2 O :   -0.268320
   3 H :    0.005053
   4 H :   -0.000418
   5 C :    0.108274
   6 H :   -0.029029
   7 H :    0.000617
   8 H :   -0.001546
   9 H :    0.020633
Sum of atomic charges:    0.0000000

LOEWDIN ATOMIC CHARGES
----------------------
   0 C :   -0.031109
   1 C :   -0.000217
   2 O :   -0.016116
   3 H :    0.006602
   4 H :    0.005371
   5 C :   -0.058206
   6 H :    0.006845
   7 H :    0.027323
   8 H :    0.027152
   9 H :    0.032355

  Mayer bond orders larger than 0.1
B(  0-C ,  1-C ) :   1.0484 B(  0-C ,  2-O ) :   0.9837 B(  0-C ,  5-C ) :   1.1019
B(  0-C ,  6-H ) :   0.9584 B(  1-C ,  2-O ) :   1.0411 B(  1-C ,  3-H ) :   0.9459
B(  1-C ,  4-H ) :   0.9383 B(  5-C ,  7-H ) :   0.9547 B(  5-C ,  8-H ) :   0.9515
B(  5-C ,  9-H ) :   0.9522

FINAL SINGLE POINT ENERGY      -193.047743645920

DIPOLE MOMENT
-------------
                                X             Y             Z
Electronic contribution:     -1.09314       1.36372       2.73368
Nuclear contribution   :      1.09206      -1.32382      -3.37647
                        -----------------------------------------
Total Dipole Moment    :     -0.00109       0.03990      -0.64280
                        -----------------------------------------
Magnitude (a.u.)       :      0.64404
Magnitude (Debye)      :      1.63701

CHEMICAL SHIELDING SUMMARY (ppm)
--------------------------

  Nucleus  Element    Isotropic     Anisotropy
  -------  -------  ------------   ------------
      0       C          144.288         65.143
      1       C          143.646         51.676
      2       O          289.194        148.563
      3       H           29.188         11.003
      4       H           29.593          9.088
      5       C          174.460         34.696
      6       H           29.046         11.568
      7       H           30.839          8.984
      8       H           30.322          8.878
      9       H           30.015          8.241

                             ****ORCA TERMINATED NORMALLY****
TOTAL RUN TIME: 0 days 0 hours 0 minutes 15 seconds 656 msec
