                         Program Version 4.0.0.2 - RELEASE -
|  1> !cc-pvdz OLYP NMR
|  2>
|  3> *xyzfile 0 1 guess.xyz
|  4>
|  5>
|  6>                          ****END OF INPUT****

CARTESIAN COORDINATES (ANGSTROEM)
---------------------------------
  C     -5.855260    5.927550    0.121830
  C     -4.648140    4.989110    0.105650
  C     -6.976200    5.166380    0.123700
  H     -5.658460    6.992790    0.130930
  O     -8.356250    5.386040    0.137790
  C     -6.539750    3.719470    0.127870
  O     -5.119760    3.715010    0.067510
  O     -3.473780    5.245140    0.118960
  H     -8.863490    6.227590    0.150790
  H     -6.881780    3.130070   -0.725970
  H     -6.798910    3.189600    1.046600

 Total Charge           Charge          ....    0
 Multiplicity           Mult            ....    1
 Number of Electrons    NEL             ....   52
 Basis Dimension        Dim             ....  118

ORBITAL ENERGIES
----------------

  NO   OCC          E(Eh)            E(eV)
   0   2.0000     -18.830819      -512.4126
   1   2.0000     -18.810822      -511.8685
   2   2.0000     -18.742315      -510.0043
   3   2.0000     -10.021509      -272.6991
   4   2.0000     -10.012880      -272.4643
   5   2.0000      -9.988098      -271.7900
   6   2.0000      -9.928028      -270.1554
   7   2.0000      -1.017894       -27.6983
   8   2.0000      -0.980103       -26.6700
   9   2.0000      -0.931461       -25.3463
  10   2.0000      -0.738007       -20.0822
  11   2.0000      -0.667313       -18.1585
  12   2.0000      -0.584779       -15.9126
  13   2.0000      -0.514497       -14.0002
  14   2.0000      -0.485588       -13.2135
  15   2.0000      -0.447244       -12.1701
  16   2.0000      -0.442191       -12.0326
  17   2.0000      -0.380987       -10.3672
  18   2.0000      -0.355880        -9.6840
  19   2.0000      -0.353600        -9.6219
  20   2.0000      -0.340297        -9.2599
  21   2.0000      -0.331908        -9.0317
  22   2.0000      -0.304284        -8.2800
  23   2.0000      -0.244514        -6.6536
  24   2.0000      -0.222399        -6.0518
  25   2.0000      -0.211661        -5.7596
  26   0.0000      -0.048362        -1.3160
  27   0.0000      -0.017992        -0.4896
  28   0.0000       0.044478         1.2103
  29   0.0000       0.049396         1.3441
  30   0.0000       0.069361         1.8874

MULLIKEN ATOMIC CHARGES
-----------------------
   0 C :   -0.036578
   1 C :    0.200912
   2 C :    0.037748
   3 H :   -0.030767
   4 O :   -0.213515
   5 C :    0.271652
   6 O :   -0.234373
   7 O :   -0.219171
   8 H :    0.155993
   9 H :    0.033360
  10 H :    0.034740
Sum of atomic charges:   -0.0000000

LOEWDIN ATOMIC CHARGES
----------------------
   0 C :   -0.108760
   1 C :   -0.174889
   2 C :   -0.037383
   3 H :    0.020340
   4 O :    0.051640
   5 C :    0.018796
   6 O :    0.099631
   7 O :   -0.014928
   8 H :    0.080088
   9 H :    0.032324
  10 H :    0.033142

  Mayer bond orders larger than 0.1
B(  0-C ,  1-C ) :   1.0120 B(  0-C ,  2-C ) :   1.6088 B(  0-C ,  3-H ) :   0.9703
B(  1-C ,  6-O ) :   1.1337 B(  1-C ,  7-O ) :   2.1692 B(  2-C ,  4-O ) :   1.1946
B(  2-C ,  5-C ) :   1.0269 B(  4-O ,  8-H ) :   0.9649 B(  5-C ,  6-O ) :   1.0158
B(  5-C ,  9-H ) :   0.9315 B(  5-C , 10-H ) :   0.9280

FINAL SINGLE POINT ENERGY      -380.398509765024

DIPOLE MOMENT
-------------
                                X             Y             Z
Electronic contribution:      2.41019       0.36264      -0.09412
Nuclear contribution   :     -4.39526       0.06331       0.13171
                        -----------------------------------------
Total Dipole Moment    :     -1.98507       0.42594       0.03759
                        -----------------------------------------
Magnitude (a.u.)       :      2.03060
Magnitude (Debye)      :      5.16137

CHEMICAL SHIELDING SUMMARY (ppm)
--------------------------

  Nucleus  Element    Isotropic     Anisotropy
  -------  -------  ------------   ------------
      0       C           95.989         85.231
      1       C           35.407         77.039
      2       C           26.838        103.693
      3       H           26.752          3.547
      4       O          203.924        114.260
      5       C          124.356         54.740
      6       O          128.533        178.193
      7       O          -37.327        448.448
      8       H           25.830         11.551
      9       H           27.015          5.984
     10       H           26.992          6.134

                             ****ORCA TERMINATED NORMALLY****
TOTAL RUN TIME: 0 days 0 hours 0 minutes 31 seconds 506 msec
