                         Program Version 4.0.0.2 - RELEASE -
|  1> !cc-pvdz BP86 NMR
|  2>
|  3> *xyzfile 0 1 guess.xyz
|  4>
|  5>
|  6>                          ****END OF INPUT****

CARTESIAN COORDINATES (ANGSTROEM)
---------------------------------
  C     -7.070220    2.323870    5.350750
  C     -6.431590    3.497590    5.404230
  H     -6.746610    1.511210    4.707880
  H     -7.950120    2.152030    5.963880
  C     -5.234810    3.745660    4.576600
  H     -6.754480    4.309740    6.044950
  O     -4.648060    4.819660    4.612450
  H     -4.904490    2.915020    3.931130

 Total Charge           Charge          ....    0
 Multiplicity           Mult            ....    1
 Number of Electrons    NEL             ....   30
 Basis Dimension        Dim             ....   76

ORBITAL ENERGIES
----------------

  NO   OCC          E(Eh)            E(eV)
   0   2.0000     -18.783573      -511.1270
   1   2.0000      -9.996944      -272.0307
   2   2.0000      -9.945193      -270.6225
   3   2.0000      -9.935426      -270.3567
   4   2.0000      -0.954021       -25.9602
   5   2.0000      -0.734049       -19.9745
   6   2.0000      -0.588290       -16.0082
   7   2.0000      -0.520889       -14.1741
   8   2.0000      -0.430797       -11.7226
   9   2.0000      -0.423099       -11.5131
  10   2.0000      -0.367568       -10.0020
  11   2.0000      -0.359688        -9.7876
  12   2.0000      -0.349901        -9.5213
  13   2.0000      -0.267898        -7.2899
  14   2.0000      -0.210194        -5.7197
  15   0.0000      -0.102465        -2.7882
  16   0.0000       0.006035         0.1642
  17   0.0000       0.053410         1.4534
  18   0.0000       0.059151         1.6096
  19   0.0000       0.099322         2.7027

MULLIKEN ATOMIC CHARGES
-----------------------
   0 C :    0.033780
   1 C :   -0.082608
   2 H :    0.039695
   3 H :    0.047037
   4 C :    0.151296
   5 H :    0.013353
   6 O :   -0.184070
   7 H :   -0.018482
Sum of atomic charges:    0.0000000

LOEWDIN ATOMIC CHARGES
----------------------
   0 C :    0.004162
   1 C :   -0.056762
   2 H :    0.030753
   3 H :    0.035527
   4 C :   -0.047694
   5 H :    0.035403
   6 O :    0.004780
   7 H :   -0.006170

  Mayer bond orders larger than 0.1
B(  0-C ,  1-C ) :   1.9122 B(  0-C ,  2-H ) :   0.9381 B(  0-C ,  3-H ) :   0.9347
B(  0-C ,  6-O ) :   0.1117 B(  1-C ,  4-C ) :   1.0967 B(  1-C ,  5-H ) :   0.9454
B(  4-C ,  6-O ) :   2.1373 B(  4-C ,  7-H ) :   0.9149

FINAL SINGLE POINT ENERGY      -191.922695616298

DIPOLE MOMENT
-------------
                                X             Y             Z
Electronic contribution:      2.19077       2.48999      -0.56124
Nuclear contribution   :     -2.88946      -3.35513       0.70721
                        -----------------------------------------
Total Dipole Moment    :     -0.69869      -0.86515       0.14597
                        -----------------------------------------
Magnitude (a.u.)       :      1.12158
Magnitude (Debye)      :      2.85084

CHEMICAL SHIELDING SUMMARY (ppm)
--------------------------

  Nucleus  Element    Isotropic     Anisotropy
  -------  -------  ------------   ------------
      0       C           60.838        179.190
      1       C           54.812        138.656
      2       H           25.308          3.942
      3       H           25.056          4.299
      4       C            4.999        132.157
      5       H           25.097          4.953
      6       O         -351.709       -995.803
      7       H           21.440          2.183

                             ****ORCA TERMINATED NORMALLY****
TOTAL RUN TIME: 0 days 0 hours 0 minutes 11 seconds 469 msec
