                         Program Version 4.0.0.2 - RELEASE -
|  1> !cc-pvdz OLYP NMR
|  2>
|  3> *xyzfile 0 1 guess.xyz
|  4>
|  5>
|  6>                          ****END OF INPUT****

CARTESIAN COORDINATES (ANGSTROEM)
---------------------------------
  C    -19.489940    2.338740   10.545380
  C    -18.250820    2.310330    9.903550
  C    -17.510240    3.484990    9.764500
  C    -18.006500    4.688960   10.266290
  C    -19.245430    4.719270   10.908420
  C    -19.982230    3.543570   11.045310
  H    -20.064060    1.422520   10.652030
  H    -19.629000    5.658190   11.297980
  H    -17.428450    5.603180   10.157220
  H    -16.544910    3.462110    9.264330
  H    -17.862920    1.373220    9.512140
  Cl   -21.509870    3.579770   11.836840

 Total Charge           Charge          ....    0
 Multiplicity           Mult            ....    1
 Number of Electrons    NEL             ....   58
 Basis Dimension        Dim             ....  127

ORBITAL ENERGIES
----------------

  NO   OCC          E(Eh)            E(eV)
   0   2.0000    -100.670852     -2739.3931
   1   2.0000      -9.973101      -271.3819
   2   2.0000      -9.926625      -270.1172
   3   2.0000      -9.926456      -270.1126
   4   2.0000      -9.926139      -270.1040
   5   2.0000      -9.926120      -270.1035
   6   2.0000      -9.921789      -269.9856
   7   2.0000      -9.208705      -250.5816
   8   2.0000      -7.029067      -191.2706
   9   2.0000      -7.017886      -190.9664
  10   2.0000      -7.017152      -190.9464
  11   2.0000      -0.818768       -22.2798
  12   2.0000      -0.764232       -20.7958
  13   2.0000      -0.688753       -18.7419
  14   2.0000      -0.664978       -18.0950
  15   2.0000      -0.557795       -15.1784
  16   2.0000      -0.540826       -14.7166
  17   2.0000      -0.469964       -12.7884
  18   2.0000      -0.417784       -11.3685
  19   2.0000      -0.414642       -11.2830
  20   2.0000      -0.383842       -10.4449
  21   2.0000      -0.380147       -10.3443
  22   2.0000      -0.350498        -9.5375
  23   2.0000      -0.315355        -8.5813
  24   2.0000      -0.312519        -8.5041
  25   2.0000      -0.292077        -7.9478
  26   2.0000      -0.265630        -7.2282
  27   2.0000      -0.232018        -6.3135
  28   2.0000      -0.213017        -5.7965
  29   0.0000      -0.039532        -1.0757
  30   0.0000      -0.037360        -1.0166
  31   0.0000       0.009376         0.2551
  32   0.0000       0.054069         1.4713
  33   0.0000       0.068407         1.8614

MULLIKEN ATOMIC CHARGES
-----------------------
   0 C :    0.148672
   1 C :    0.062771
   2 C :    0.059488
   3 C :    0.058740
   4 C :    0.154815
   5 C :   -0.158313
   6 H :   -0.046125
   7 H :   -0.049305
   8 H :   -0.046051
   9 H :   -0.051897
  10 H :   -0.049074
  11 Cl:   -0.083721
Sum of atomic charges:   -0.0000000

LOEWDIN ATOMIC CHARGES
----------------------
   0 C :   -0.028452
   1 C :   -0.013939
   2 C :   -0.022045
   3 C :   -0.014751
   4 C :   -0.027323
   5 C :   -0.159653
   6 H :    0.025225
   7 H :    0.024965
   8 H :    0.025571
   9 H :    0.023278
  10 H :    0.025221
  11 Cl:    0.141902

  Mayer bond orders larger than 0.1
B(  0-C ,  1-C ) :   1.4467 B(  0-C ,  5-C ) :   1.3670 B(  0-C ,  6-H ) :   0.9359
B(  1-C ,  2-C ) :   1.4364 B(  1-C , 10-H ) :   0.9367 B(  2-C ,  3-C ) :   1.4329
B(  2-C ,  9-H ) :   0.9412 B(  3-C ,  4-C ) :   1.4450 B(  3-C ,  8-H ) :   0.9383
B(  4-C ,  5-C ) :   1.3677 B(  4-C ,  7-H ) :   0.9352 B(  5-C , 11-Cl) :   1.0446

FINAL SINGLE POINT ENERGY      -691.808763451298

DIPOLE MOMENT
-------------
                                X             Y             Z
Electronic contribution:     -8.10066       0.19253       4.19897
Nuclear contribution   :      8.62674      -0.20443      -4.46979
                        -----------------------------------------
Total Dipole Moment    :      0.52608      -0.01190      -0.27082
                        -----------------------------------------
Magnitude (a.u.)       :      0.59182
Magnitude (Debye)      :      1.50427

CHEMICAL SHIELDING SUMMARY (ppm)
--------------------------

  Nucleus  Element    Isotropic     Anisotropy
  -------  -------  ------------   ------------
      0       C           70.042        141.487
      1       C           68.881        159.625
      2       C           72.379        164.778
      3       C           69.020        159.616
      4       C           69.884        141.716
      5       C           56.908        108.504
      6       H           24.412          7.260
      7       H           24.420          7.234
      8       H           24.299          4.632
      9       H           24.456          4.273
     10       H           24.310          4.619
     11       Cl         726.340        389.098

                             ****ORCA TERMINATED NORMALLY****
TOTAL RUN TIME: 0 days 0 hours 0 minutes 46 seconds 222 msec
