                         Program Version 4.0.0.2 - RELEASE -
|  1> !cc-pvdz BP86 NMR
|  2>
|  3> *xyzfile 0 1 guess.xyz
|  4>
|  5>
|  6>                          ****END OF INPUT****

CARTESIAN COORDINATES (ANGSTROEM)
---------------------------------
  C    -14.989850    2.613290    8.077050
  C    -13.963020    1.894520    7.469080
  C    -12.811860    2.555300    7.048170
  C    -12.688600    3.934310    7.235610
  C    -13.714690    4.672510    7.846690
  C    -14.864070    3.989090    8.262770
  O    -15.919760    4.611330    8.867100
  H    -15.729630    5.558150    8.946810
  H    -15.890390    2.103150    8.407520
  H    -14.062030    0.822290    7.324800
  H    -12.008540    1.997840    6.573400
  H    -11.780110    4.429160    6.898660
  C    -13.547560    6.152260    8.031370
  H    -12.584890    6.502190    7.643760
  H    -13.587920    6.408180    9.094990
  H    -14.335070    6.692110    7.495820

 Total Charge           Charge          ....    0
 Multiplicity           Mult            ....    1
 Number of Electrons    NEL             ....   58
 Basis Dimension        Dim             ....  152

ORBITAL ENERGIES
----------------

  NO   OCC          E(Eh)            E(eV)
   0   2.0000     -18.815523      -511.9964
   1   2.0000      -9.965384      -271.1719
   2   2.0000      -9.922384      -270.0018
   3   2.0000      -9.918787      -269.9039
   4   2.0000      -9.910627      -269.6819
   5   2.0000      -9.908918      -269.6354
   6   2.0000      -9.904549      -269.5165
   7   2.0000      -9.902299      -269.4552
   8   2.0000      -0.975316       -26.5397
   9   2.0000      -0.775469       -21.1016
  10   2.0000      -0.706402       -19.2222
  11   2.0000      -0.668205       -18.1828
  12   2.0000      -0.626598       -17.0506
  13   2.0000      -0.548511       -14.9257
  14   2.0000      -0.542945       -14.7743
  15   2.0000      -0.483392       -13.1538
  16   2.0000      -0.440483       -11.9862
  17   2.0000      -0.413060       -11.2399
  18   2.0000      -0.394579       -10.7370
  19   2.0000      -0.386846       -10.5266
  20   2.0000      -0.364713        -9.9243
  21   2.0000      -0.354267        -9.6401
  22   2.0000      -0.347557        -9.4575
  23   2.0000      -0.336963        -9.1692
  24   2.0000      -0.304967        -8.2986
  25   2.0000      -0.293374        -7.9831
  26   2.0000      -0.291873        -7.9423
  27   2.0000      -0.218755        -5.9526
  28   2.0000      -0.191432        -5.2091
  29   0.0000      -0.031660        -0.8615
  30   0.0000      -0.018017        -0.4903
  31   0.0000       0.020032         0.5451
  32   0.0000       0.051502         1.4014
  33   0.0000       0.081205         2.2097

MULLIKEN ATOMIC CHARGES
-----------------------
   0 C :    0.038308
   1 C :    0.034811
   2 C :    0.015555
   3 C :    0.009586
   4 C :   -0.079923
   5 C :   -0.027313
   6 O :   -0.147723
   7 H :    0.135934
   8 H :   -0.018514
   9 H :   -0.021614
  10 H :   -0.029084
  11 H :   -0.036394
  12 C :   -0.008859
  13 H :    0.036917
  14 H :    0.047717
  15 H :    0.050594
Sum of atomic charges:   -0.0000000

LOEWDIN ATOMIC CHARGES
----------------------
   0 C :   -0.045280
   1 C :   -0.030972
   2 C :   -0.052650
   3 C :   -0.029068
   4 C :   -0.074491
   5 C :   -0.062285
   6 O :    0.087058
   7 H :    0.053658
   8 H :    0.029942
   9 H :    0.029300
  10 H :    0.025668
  11 H :    0.025627
  12 C :   -0.070731
  13 H :    0.042743
  14 H :    0.035333
  15 H :    0.036147

  Mayer bond orders larger than 0.1
B(  0-C ,  1-C ) :   1.4809 B(  0-C ,  5-C ) :   1.3938 B(  0-C ,  8-H ) :   0.9158
B(  1-C ,  2-C ) :   1.4492 B(  1-C ,  9-H ) :   0.9337 B(  2-C ,  3-C ) :   1.4658
B(  2-C , 10-H ) :   0.9294 B(  3-C ,  4-C ) :   1.4554 B(  3-C , 11-H ) :   0.9171
B(  4-C ,  5-C ) :   1.2954 B(  4-C , 12-C ) :   1.0969 B(  5-C ,  6-O ) :   1.2730
B(  6-O ,  7-H ) :   0.9880 B( 12-C , 13-H ) :   0.9443 B( 12-C , 14-H ) :   0.9403
B( 12-C , 15-H ) :   0.9400

FINAL SINGLE POINT ENERGY      -346.804668106447

DIPOLE MOMENT
-------------
                                X             Y             Z
Electronic contribution:     -2.49584      -2.69033       0.68996
Nuclear contribution   :      2.67591       3.33858      -0.65823
                        -----------------------------------------
Total Dipole Moment    :      0.18007       0.64824       0.03173
                        -----------------------------------------
Magnitude (a.u.)       :      0.67354
Magnitude (Debye)      :      1.71200

CHEMICAL SHIELDING SUMMARY (ppm)
--------------------------

  Nucleus  Element    Isotropic     Anisotropy
  -------  -------  ------------   ------------
      0       C           82.100        134.762
      1       C           68.531        161.672
      2       C           76.351        153.599
      3       C           64.932        138.345
      4       C           76.948        142.026
      5       C           43.830        122.190
      6       O          217.122         76.416
      7       H           27.765         11.020
      8       H           24.780          5.234
      9       H           24.384          4.199
     10       H           24.823          4.031
     11       H           24.399          6.434
     12       C          175.635         26.876
     13       H           29.398          7.246
     14       H           29.370          8.482
     15       H           29.373          8.563

                             ****ORCA TERMINATED NORMALLY****
TOTAL RUN TIME: 0 days 0 hours 1 minutes 15 seconds 53 msec
