                         Program Version 4.0.0.2 - RELEASE -
|  1> !aug-cc-pVDZ B3LYP NMR
|  2>
|  3> *xyzfile 0 1 guess.xyz
|  4>
|  5>
|  6>                          ****END OF INPUT****

CARTESIAN COORDINATES (ANGSTROEM)
---------------------------------
  C     -5.836580    1.910430   -0.257460
  C     -5.422970    3.284080    0.305630
  H     -6.186420    1.329360    0.607980
  H     -5.003540    1.334660   -0.699520
  H     -6.679420    1.899980   -0.949770
  O     -4.652250    4.189390   -0.495290
  O     -6.564510    3.870210    0.966150
  H     -4.739930    2.997410    1.089160
  C     -7.493040    4.564110    0.172040
  H     -8.440470    4.021040    0.128210
  H     -7.159700    4.784930   -0.855460
  H     -7.677790    5.516500    0.679790
  C     -4.744970    5.577430   -0.126410
  H     -3.776950    6.081570   -0.075660
  H     -5.248300    5.771300    0.837230
  H     -5.315420    6.063010   -0.920920

 Total Charge           Charge          ....    0
 Multiplicity           Mult            ....    1
 Number of Electrons    NEL             ....   50
 Basis Dimension        Dim             ....  228

ORBITAL ENERGIES
----------------

  NO   OCC          E(Eh)            E(eV)
   0   2.0000     -19.154911      -521.2316
   1   2.0000     -19.152813      -521.1745
   2   2.0000     -10.284072      -279.8438
   3   2.0000     -10.225905      -278.2610
   4   2.0000     -10.225198      -278.2418
   5   2.0000     -10.182018      -277.0668
   6   2.0000      -1.062278       -28.9061
   7   2.0000      -1.005969       -27.3738
   8   2.0000      -0.768323       -20.9071
   9   2.0000      -0.689118       -18.7518
  10   2.0000      -0.685299       -18.6479
  11   2.0000      -0.591105       -16.0848
  12   2.0000      -0.511543       -13.9198
  13   2.0000      -0.504000       -13.7145
  14   2.0000      -0.475774       -12.9465
  15   2.0000      -0.442569       -12.0429
  16   2.0000      -0.419328       -11.4105
  17   2.0000      -0.415797       -11.3144
  18   2.0000      -0.402632       -10.9562
  19   2.0000      -0.386042       -10.5047
  20   2.0000      -0.372834       -10.1453
  21   2.0000      -0.356732        -9.7072
  22   2.0000      -0.307347        -8.3633
  23   2.0000      -0.279959        -7.6181
  24   2.0000      -0.250227        -6.8090
  25   0.0000      -0.008403        -0.2287
  26   0.0000       0.003552         0.0966
  27   0.0000       0.009354         0.2545
  28   0.0000       0.018656         0.5076
  29   0.0000       0.029920         0.8142

MULLIKEN ATOMIC CHARGES
-----------------------
   0 C :    0.873997
   1 C :    1.499088
   2 H :   -0.202771
   3 H :   -0.272275
   4 H :   -0.351377
   5 O :   -0.608104
   6 O :   -0.622770
   7 H :   -0.774683
   8 C :    1.294002
   9 H :   -0.486774
  10 H :   -0.114082
  11 H :   -0.446233
  12 C :    1.215808
  13 H :   -0.485005
  14 H :   -0.147602
  15 H :   -0.371218
Sum of atomic charges:    0.0000000

LOEWDIN ATOMIC CHARGES
----------------------
   0 C :   -0.435223
   1 C :   -1.328884
   2 H :    0.289691
   3 H :    0.276507
   4 H :    0.248050
   5 O :    0.345506
   6 O :    0.291430
   7 H :    0.269489
   8 C :   -0.649539
   9 H :    0.207410
  10 H :    0.233818
  11 H :    0.222238
  12 C :   -0.599527
  13 H :    0.193625
  14 H :    0.221574
  15 H :    0.213835

  Mayer bond orders larger than 0.1
B(  0-C ,  1-C ) :   1.2126 B(  0-C ,  2-H ) :   0.8330 B(  0-C ,  3-H ) :   0.7619
B(  0-C ,  4-H ) :   0.8902 B(  0-C ,  7-H ) :   0.1358 B(  1-C ,  2-H ) :   0.1334
B(  1-C ,  3-H ) :   0.1326 B(  1-C ,  5-O ) :   0.4294 B(  1-C ,  6-O ) :   0.6833
B(  3-H ,  4-H ) :  -0.1403 B(  5-O , 12-C ) :   0.8614 B(  6-O ,  8-C ) :   0.8922
B(  8-C ,  9-H ) :   0.7653 B(  8-C , 10-H ) :   0.8356 B(  8-C , 11-H ) :   0.7959
B(  9-H , 10-H ) :  -0.1320 B(  9-H , 11-H ) :  -0.1655 B( 12-C , 13-H ) :   0.8244
B( 12-C , 14-H ) :   0.8946 B( 12-C , 15-H ) :   0.8641 B( 13-H , 14-H ) :  -0.1233
B( 13-H , 15-H ) :  -0.1503

FINAL SINGLE POINT ENERGY      -308.699026874677

DIPOLE MOMENT
-------------
                                X             Y             Z
Electronic contribution:      1.86044      -0.38933       0.96264
Nuclear contribution   :     -2.11708       0.56731      -1.02978
                        -----------------------------------------
Total Dipole Moment    :     -0.25664       0.17798      -0.06714
                        -----------------------------------------
Magnitude (a.u.)       :      0.31946
Magnitude (Debye)      :      0.81199

CHEMICAL SHIELDING SUMMARY (ppm)
--------------------------

  Nucleus  Element    Isotropic     Anisotropy
  -------  -------  ------------   ------------
      0       C          170.950         34.277
      1       C           90.290         41.714
      2       H           30.292          7.917
      3       H           30.060          8.598
      4       H           30.324          6.609
      5       O          279.233        105.559
      6       O          272.675        112.400
      7       H           26.495          4.304
      8       C          143.332         67.305
      9       H           28.225          9.355
     10       H           28.206          7.448
     11       H           28.266          8.819
     12       C          140.265         76.699
     13       H           28.400          8.908
     14       H           27.573          7.126
     15       H           28.118          8.816

                             ****ORCA TERMINATED NORMALLY****
TOTAL RUN TIME: 0 days 0 hours 9 minutes 28 seconds 778 msec
