                         Program Version 4.0.0.2 - RELEASE -
|  1> !cc-pvdz BP86 NMR
|  2>
|  3> *xyzfile 0 1 guess.xyz
|  4>
|  5>
|  6>                          ****END OF INPUT****

CARTESIAN COORDINATES (ANGSTROEM)
---------------------------------
  C    -17.001970    1.946380    9.168510
  C    -15.925600    1.365760    8.498080
  C    -14.847460    2.155220    8.096290
  C    -14.845940    3.525080    8.365000
  C    -15.922310    4.108200    9.035930
  C    -16.992830    3.311490    9.432360
  O    -18.064920    3.838570   10.090050
  H    -17.918700    4.791890   10.202050
  H    -17.844170    1.337460    9.483920
  H    -14.004770    4.137540    8.050830
  H    -15.907800    5.174160    9.238150
  H    -15.928280    0.299300    8.289650
  H    -14.008600    1.702600    7.573760

 Total Charge           Charge          ....    0
 Multiplicity           Mult            ....    1
 Number of Electrons    NEL             ....   50
 Basis Dimension        Dim             ....  128

ORBITAL ENERGIES
----------------

  NO   OCC          E(Eh)            E(eV)
   0   2.0000     -18.815911      -512.0070
   1   2.0000      -9.970102      -271.3003
   2   2.0000      -9.916605      -269.8445
   3   2.0000      -9.915129      -269.8044
   4   2.0000      -9.913622      -269.7634
   5   2.0000      -9.908674      -269.6287
   6   2.0000      -9.906623      -269.5729
   7   2.0000      -0.976905       -26.5829
   8   2.0000      -0.775861       -21.1122
   9   2.0000      -0.680536       -18.5183
  10   2.0000      -0.669342       -18.2137
  11   2.0000      -0.566381       -15.4120
  12   2.0000      -0.543360       -14.7856
  13   2.0000      -0.492907       -13.4127
  14   2.0000      -0.445752       -12.1295
  15   2.0000      -0.416200       -11.3254
  16   2.0000      -0.390620       -10.6293
  17   2.0000      -0.377084       -10.2610
  18   2.0000      -0.363709        -9.8970
  19   2.0000      -0.339124        -9.2280
  20   2.0000      -0.314803        -8.5662
  21   2.0000      -0.296798        -8.0763
  22   2.0000      -0.295428        -8.0390
  23   2.0000      -0.228598        -6.2205
  24   2.0000      -0.196123        -5.3368
  25   0.0000      -0.037813        -1.0289
  26   0.0000      -0.019807        -0.5390
  27   0.0000       0.027891         0.7589
  28   0.0000       0.045331         1.2335
  29   0.0000       0.085396         2.3237

MULLIKEN ATOMIC CHARGES
-----------------------
   0 C :    0.026133
   1 C :    0.032792
   2 C :    0.004183
   3 C :    0.024746
   4 C :   -0.011906
   5 C :    0.035260
   6 O :   -0.156460
   7 H :    0.145531
   8 H :   -0.014700
   9 H :   -0.019522
  10 H :   -0.024012
  11 H :   -0.016704
  12 H :   -0.025342
Sum of atomic charges:   -0.0000000

LOEWDIN ATOMIC CHARGES
----------------------
   0 C :   -0.046835
   1 C :   -0.022930
   2 C :   -0.052960
   3 C :   -0.024182
   4 C :   -0.075045
   5 C :   -0.063780
   6 O :    0.083897
   7 H :    0.060393
   8 H :    0.030942
   9 H :    0.029584
  10 H :    0.023568
  11 H :    0.030911
  12 H :    0.026438

  Mayer bond orders larger than 0.1
B(  0-C ,  1-C ) :   1.4827 B(  0-C ,  5-C ) :   1.3953 B(  0-C ,  8-H ) :   0.9220
B(  1-C ,  2-C ) :   1.4534 B(  1-C , 11-H ) :   0.9339 B(  2-C ,  3-C ) :   1.4661
B(  2-C , 12-H ) :   0.9339 B(  3-C ,  4-C ) :   1.4665 B(  3-C ,  9-H ) :   0.9297
B(  4-C ,  5-C ) :   1.3543 B(  4-C , 10-H ) :   0.9222 B(  5-C ,  6-O ) :   1.2283
B(  6-O ,  7-H ) :   0.9951

FINAL SINGLE POINT ENERGY      -307.489476018802

DIPOLE MOMENT
-------------
                                X             Y             Z
Electronic contribution:     -1.84030       0.63540       1.07814
Nuclear contribution   :      1.95678      -0.13738      -1.03816
                        -----------------------------------------
Total Dipole Moment    :      0.11647       0.49803       0.03997
                        -----------------------------------------
Magnitude (a.u.)       :      0.51303
Magnitude (Debye)      :      1.30401

CHEMICAL SHIELDING SUMMARY (ppm)
--------------------------

  Nucleus  Element    Isotropic     Anisotropy
  -------  -------  ------------   ------------
      0       C           83.583        136.869
      1       C           66.829        166.859
      2       C           77.118        158.233
      3       C           67.345        164.034
      4       C           84.182        118.079
      5       C           42.686        129.410
      6       O          207.198         56.265
      7       H           28.007         11.114
      8       H           24.777          4.923
      9       H           24.387          4.479
     10       H           25.165          5.129
     11       H           24.258          4.382
     12       H           24.707          3.965

                             ****ORCA TERMINATED NORMALLY****
TOTAL RUN TIME: 0 days 0 hours 0 minutes 45 seconds 417 msec
