                         Program Version 4.0.0.2 - RELEASE -
|  1> !cc-pvdz BP86 NMR
|  2>
|  3> *xyzfile 0 1 guess.xyz
|  4>
|  5>
|  6>                          ****END OF INPUT****

CARTESIAN COORDINATES (ANGSTROEM)
---------------------------------
  C     -5.836580    1.910430   -0.257460
  C     -5.422970    3.284080    0.305630
  H     -6.186420    1.329360    0.607980
  H     -5.003540    1.334660   -0.699520
  H     -6.679420    1.899980   -0.949770
  O     -4.652250    4.189390   -0.495290
  O     -6.564510    3.870210    0.966150
  H     -4.739930    2.997410    1.089160
  C     -7.493040    4.564110    0.172040
  H     -8.440470    4.021040    0.128210
  H     -7.159700    4.784930   -0.855460
  H     -7.677790    5.516500    0.679790
  C     -4.744970    5.577430   -0.126410
  H     -3.776950    6.081570   -0.075660
  H     -5.248300    5.771300    0.837230
  H     -5.315420    6.063010   -0.920920

 Total Charge           Charge          ....    0
 Multiplicity           Mult            ....    1
 Number of Electrons    NEL             ....   50
 Basis Dimension        Dim             ....  134

ORBITAL ENERGIES
----------------

  NO   OCC          E(Eh)            E(eV)
   0   2.0000     -18.786715      -511.2125
   1   2.0000     -18.785812      -511.1879
   2   2.0000     -10.002518      -272.1823
   3   2.0000      -9.949981      -270.7527
   4   2.0000      -9.949836      -270.7488
   5   2.0000      -9.908643      -269.6279
   6   2.0000      -0.968061       -26.3423
   7   2.0000      -0.913295       -24.8520
   8   2.0000      -0.696198       -18.9445
   9   2.0000      -0.621456       -16.9107
  10   2.0000      -0.617950       -16.8153
  11   2.0000      -0.528752       -14.3881
  12   2.0000      -0.458152       -12.4669
  13   2.0000      -0.447620       -12.1804
  14   2.0000      -0.420771       -11.4498
  15   2.0000      -0.390406       -10.6235
  16   2.0000      -0.367843       -10.0095
  17   2.0000      -0.364501        -9.9186
  18   2.0000      -0.355131        -9.6636
  19   2.0000      -0.339700        -9.2437
  20   2.0000      -0.324899        -8.8409
  21   2.0000      -0.304552        -8.2873
  22   2.0000      -0.253778        -6.9056
  23   2.0000      -0.223345        -6.0775
  24   2.0000      -0.195932        -5.3316
  25   0.0000       0.040393         1.0991
  26   0.0000       0.059633         1.6227
  27   0.0000       0.076043         2.0692
  28   0.0000       0.078098         2.1252
  29   0.0000       0.086198         2.3456

MULLIKEN ATOMIC CHARGES
-----------------------
   0 C :   -0.053800
   1 C :    0.188711
   2 H :    0.048969
   3 H :    0.041418
   4 H :    0.034284
   5 O :   -0.305575
   6 O :   -0.293972
   7 H :    0.010234
   8 C :    0.063447
   9 H :    0.030469
  10 H :    0.035442
  11 H :    0.031048
  12 C :    0.065588
  13 H :    0.032813
  14 H :    0.042352
  15 H :    0.028574
Sum of atomic charges:   -0.0000000

LOEWDIN ATOMIC CHARGES
----------------------
   0 C :   -0.089434
   1 C :   -0.045792
   2 H :    0.045928
   3 H :    0.036923
   4 H :    0.026318
   5 O :   -0.018887
   6 O :    0.005400
   7 H :    0.014235
   8 C :   -0.054818
   9 H :    0.016229
  10 H :    0.017814
  11 H :    0.022321
  12 C :   -0.035410
  13 H :    0.022046
  14 H :    0.021046
  15 H :    0.016079

  Mayer bond orders larger than 0.1
B(  0-C ,  1-C ) :   1.0848 B(  0-C ,  2-H ) :   0.9521 B(  0-C ,  3-H ) :   0.9516
B(  0-C ,  4-H ) :   0.9606 B(  1-C ,  5-O ) :   1.0631 B(  1-C ,  6-O ) :   1.0284
B(  1-C ,  7-H ) :   0.9307 B(  5-O , 12-C ) :   1.0330 B(  6-O ,  8-C ) :   1.0451
B(  8-C ,  9-H ) :   0.9686 B(  8-C , 10-H ) :   0.9538 B(  8-C , 11-H ) :   0.9729
B( 12-C , 13-H ) :   0.9693 B( 12-C , 14-H ) :   0.9532 B( 12-C , 15-H ) :   0.9706

FINAL SINGLE POINT ENERGY      -308.850489169892

DIPOLE MOMENT
-------------
                                X             Y             Z
Electronic contribution:      1.86801      -0.36624       0.96068
Nuclear contribution   :     -2.11708       0.56731      -1.02978
                        -----------------------------------------
Total Dipole Moment    :     -0.24907       0.20107      -0.06910
                        -----------------------------------------
Magnitude (a.u.)       :      0.32748
Magnitude (Debye)      :      0.83238

CHEMICAL SHIELDING SUMMARY (ppm)
--------------------------

  Nucleus  Element    Isotropic     Anisotropy
  -------  -------  ------------   ------------
      0       C          171.509         34.305
      1       C           90.411         44.853
      2       H           30.272          7.741
      3       H           30.008          8.422
      4       H           30.257          6.719
      5       O          275.202        104.128
      6       O          268.692        109.658
      7       H           26.279          4.627
      8       C          143.311         67.341
      9       H           28.092          9.477
     10       H           28.010          7.624
     11       H           28.084          8.780
     12       C          140.879         75.387
     13       H           28.336          8.981
     14       H           27.433          7.335
     15       H           27.967          8.935

                             ****ORCA TERMINATED NORMALLY****
TOTAL RUN TIME: 0 days 0 hours 0 minutes 54 seconds 301 msec
