                         Program Version 4.0.0.2 - RELEASE -
|  1> !aug-cc-pVDZ B3LYP NMR
|  2>
|  3> *xyzfile 0 1 guess.xyz
|  4>
|  5>
|  6>                          ****END OF INPUT****

CARTESIAN COORDINATES (ANGSTROEM)
---------------------------------
  C    -16.991890    1.956390    9.165270
  C    -15.904190    1.392230    8.492230
  C    -14.806770    2.221640    8.088330
  C    -14.715920    3.623870    8.317250
  C    -15.852940    4.151090    9.008520
  C    -16.958470    3.318820    9.416050
  O    -18.047700    3.840330   10.081500
  H    -17.916150    4.792320   10.200820
  H    -17.838070    1.342650    9.481790
  H    -15.900230    5.197230    9.238780
  H    -15.920200    0.314970    8.288560
  H    -13.994780    1.701160    7.566340
  N    -13.592790    4.385730    7.886770
  H    -12.856820    3.847080    7.400490
  H    -13.302750    5.365620    7.929680

 Total Charge           Charge          ....    0
 Multiplicity           Mult            ....    1
 Number of Electrons    NEL             ....   58
 Basis Dimension        Dim             ....  247

ORBITAL ENERGIES
----------------

  NO   OCC          E(Eh)            E(eV)
   0   2.0000     -19.176415      -521.8168
   1   2.0000     -14.350944      -390.5090
   2   2.0000     -10.248603      -278.8787
   3   2.0000     -10.246871      -278.8315
   4   2.0000     -10.191974      -277.3377
   5   2.0000     -10.186237      -277.1816
   6   2.0000     -10.181198      -277.0445
   7   2.0000     -10.171774      -276.7880
   8   2.0000      -1.058333       -28.7987
   9   2.0000      -0.907507       -24.6945
  10   2.0000      -0.827628       -22.5209
  11   2.0000      -0.736781       -20.0488
  12   2.0000      -0.724560       -19.7163
  13   2.0000      -0.625205       -17.0127
  14   2.0000      -0.599802       -16.3214
  15   2.0000      -0.544082       -14.8052
  16   2.0000      -0.522048       -14.2057
  17   2.0000      -0.484218       -13.1762
  18   2.0000      -0.473262       -12.8781
  19   2.0000      -0.445305       -12.1174
  20   2.0000      -0.418472       -11.3872
  21   2.0000      -0.405410       -11.0318
  22   2.0000      -0.383317       -10.4306
  23   2.0000      -0.359060        -9.7705
  24   2.0000      -0.355222        -9.6661
  25   2.0000      -0.351087        -9.5536
  26   2.0000      -0.295859        -8.0507
  27   2.0000      -0.226216        -6.1556
  28   2.0000      -0.205398        -5.5892
  29   0.0000      -0.017892        -0.4869
  30   0.0000      -0.011157        -0.3036
  31   0.0000      -0.006067        -0.1651
  32   0.0000       0.005159         0.1404
  33   0.0000       0.008820         0.2400

MULLIKEN ATOMIC CHARGES
-----------------------
   0 C :    0.786142
   1 C :    0.603819
   2 C :    1.143206
   3 C :   -0.113217
   4 C :    1.523273
   5 C :    0.361054
   6 O :   -0.574192
   7 H :    0.154848
   8 H :   -0.747948
   9 H :   -1.021374
  10 H :   -0.768972
  11 H :   -0.989182
  12 N :   -0.104364
  13 H :   -0.077252
  14 H :   -0.175840
Sum of atomic charges:   -0.0000000

LOEWDIN ATOMIC CHARGES
----------------------
   0 C :   -0.242526
   1 C :   -0.262864
   2 C :   -0.223247
   3 C :   -0.792123
   4 C :   -0.116793
   5 C :   -0.847601
   6 O :    0.520222
   7 H :    0.162703
   8 H :    0.302000
   9 H :    0.272720
  10 H :    0.300666
  11 H :    0.298986
  12 N :    0.174909
  13 H :    0.237356
  14 H :    0.215592

  Mayer bond orders larger than 0.1
B(  0-C ,  1-C ) :   1.6680 B(  0-C ,  3-C ) :   0.2976 B(  0-C ,  4-C ) :  -0.3085
B(  0-C ,  5-C ) :   1.6012 B(  0-C ,  8-H ) :  -0.5171 B(  0-C , 10-H ) :   0.4018
B(  1-C ,  2-C ) :   1.3180 B(  1-C ,  3-C ) :  -0.4074 B(  1-C ,  4-C ) :   0.2888
B(  1-C ,  5-C ) :  -0.3288 B(  1-C , 10-H ) :  -0.2757 B(  1-C , 11-H ) :   0.3317
B(  2-C ,  3-C ) :   1.3407 B(  2-C ,  4-C ) :  -0.2081 B(  2-C ,  5-C ) :   0.2307
B(  2-C ,  9-H ) :  -0.1409 B(  2-C , 10-H ) :   0.2905 B(  2-C , 11-H ) :  -0.8184
B(  3-C ,  4-C ) :   1.0659 B(  3-C ,  5-C ) :  -0.2089 B(  3-C ,  9-H ) :   0.7915
B(  3-C , 11-H ) :   0.4560 B(  3-C , 12-N ) :   0.8510 B(  3-C , 13-H ) :  -0.1323
B(  4-C ,  5-C ) :   0.8575 B(  4-C ,  6-O ) :   0.2248 B(  4-C ,  8-H ) :   0.1286
B(  4-C ,  9-H ) :  -1.0520 B(  5-C ,  6-O ) :   0.3254 B(  5-C ,  8-H ) :   0.5866
B(  5-C ,  9-H ) :   0.3588 B(  5-C , 10-H ) :  -0.1622 B(  6-O ,  7-H ) :   1.0115
B(  9-H , 12-N ) :  -0.1124 B( 11-H , 12-N ) :  -0.1016 B( 12-N , 13-H ) :   1.0506
B( 12-N , 14-H ) :   1.1567

FINAL SINGLE POINT ENERGY      -362.648951867281

DIPOLE MOMENT
-------------
                                X             Y             Z
Electronic contribution:     -2.31986       0.37659       1.28057
Nuclear contribution   :      3.11414       0.37497      -1.53542
                        -----------------------------------------
Total Dipole Moment    :      0.79428       0.75155      -0.25485
                        -----------------------------------------
Magnitude (a.u.)       :      1.12279
Magnitude (Debye)      :      2.85392

CHEMICAL SHIELDING SUMMARY (ppm)
--------------------------

  Nucleus  Element    Isotropic     Anisotropy
  -------  -------  ------------   ------------
      0       C           85.185        132.736
      1       C           56.908        169.977
      2       C           83.042        125.289
      3       C           40.852        155.277
      4       C           90.041         98.756
      5       C           31.215        133.049
      6       O          216.976         68.497
      7       H           27.939         11.985
      8       H           24.841          4.406
      9       H           25.914          6.510
     10       H           24.012          4.563
     11       H           25.414          5.399
     12       N          202.439         66.149
     13       H           28.166         11.596
     14       H           27.397         12.119

                             ****ORCA TERMINATED NORMALLY****
TOTAL RUN TIME: 0 days 0 hours 13 minutes 32 seconds 632 msec
