                         Program Version 4.0.0.2 - RELEASE -
|  1> !cc-pVDZ BP86 NMR
|  2>
|  3> *xyzfile 0 1 guess.xyz
|  4>
|  5>
|  6>                          ****END OF INPUT****

CARTESIAN COORDINATES (ANGSTROEM)
---------------------------------
  C     -1.500850   -2.425340   -0.120480
  S     -1.358320   -4.105230   -0.179340
  S     -1.651250   -0.652380   -0.058210

 Total Charge           Charge          ....    0
 Multiplicity           Mult            ....    1
 Number of Electrons    NEL             ....   38
 Basis Dimension        Dim             ....   50

ORBITAL ENERGIES
----------------

  NO   OCC          E(Eh)            E(eV)
   0   2.0000     -88.178969     -2399.4717
   1   2.0000     -88.171563     -2399.2702
   2   2.0000     -10.065278      -273.8901
   3   2.0000      -7.739604      -210.6053
   4   2.0000      -7.730054      -210.3455
   5   2.0000      -5.762483      -156.8051
   6   2.0000      -5.756083      -156.6310
   7   2.0000      -5.756065      -156.6305
   8   2.0000      -5.754455      -156.5867
   9   2.0000      -5.746064      -156.3584
  10   2.0000      -5.746051      -156.3580
  11   2.0000      -0.750067       -20.4104
  12   2.0000      -0.679657       -18.4944
  13   2.0000      -0.485541       -13.2122
  14   2.0000      -0.386851       -10.5268
  15   2.0000      -0.326998        -8.8981
  16   2.0000      -0.326978        -8.8975
  17   2.0000      -0.252228        -6.8635
  18   2.0000      -0.252226        -6.8634
  19   0.0000      -0.131404        -3.5757
  20   0.0000      -0.131380        -3.5750
  21   0.0000      -0.069438        -1.8895
  22   0.0000       0.078843         2.1454
  23   0.0000       0.307549         8.3688

MULLIKEN ATOMIC CHARGES
-----------------------
   0 C :   -0.053018
   1 S :    0.047138
   2 S :    0.005880
Sum of atomic charges:   -0.0000000

LOEWDIN ATOMIC CHARGES
----------------------
   0 C :   -0.244627
   1 S :    0.162829
   2 S :    0.081798

  Mayer bond orders larger than 0.1
B(  0-C ,  1-S ) :   1.9406 B(  0-C ,  2-S ) :   1.8387 B(  1-S ,  2-S ) :   0.4601

FINAL SINGLE POINT ENERGY      -834.555746078032

DIPOLE MOMENT
-------------
                                X             Y             Z
Electronic contribution:      0.01406      -0.16595      -0.00578
Nuclear contribution   :      0.00004      -0.00043      -0.00002
                        -----------------------------------------
Total Dipole Moment    :      0.01409      -0.16638      -0.00580
                        -----------------------------------------
Magnitude (a.u.)       :      0.16708
Magnitude (Debye)      :      0.42467

CHEMICAL SHIELDING SUMMARY (ppm)
--------------------------

  Nucleus  Element    Isotropic     Anisotropy
  -------  -------  ------------   ------------
      0       C          -48.290        498.406
      1       S          263.835       1193.753
      2       S          197.824       1292.776

                             ****ORCA TERMINATED NORMALLY****
TOTAL RUN TIME: 0 days 0 hours 0 minutes 16 seconds 805 msec
