                         Program Version 4.0.0.2 - RELEASE -
|  1> !cc-pvdz OLYP NMR
|  2>
|  3> *xyzfile 0 1 guess.xyz
|  4>
|  5>
|  6>                          ****END OF INPUT****

CARTESIAN COORDINATES (ANGSTROEM)
---------------------------------
  C    -19.618150    2.348620   10.603840
  C    -18.329480    2.331010    9.979460
  C    -17.582080    3.479600    9.795850
  C    -18.130020    4.655620   10.318010
  C    -19.399070    4.659850   10.991880
  C    -20.192140    3.511720   11.172310
  H    -20.162190    1.411430   10.604200
  H    -19.729270    5.634250   11.360510
  H    -17.546410    5.564780   10.193020
  H    -16.626760    3.473280    9.267130
  H    -17.897310    1.391470    9.620750
  N    -21.454830    3.498080   11.785030
  H    -21.984110    2.648280   11.959740
  H    -21.888850    4.304090   12.235440

 Total Charge           Charge          ....    0
 Multiplicity           Mult            ....    1
 Number of Electrons    NEL             ....   50
 Basis Dimension        Dim             ....  133

ORBITAL ENERGIES
----------------

  NO   OCC          E(Eh)            E(eV)
   0   2.0000     -14.022963      -381.5842
   1   2.0000      -9.955143      -270.8932
   2   2.0000      -9.906497      -269.5695
   3   2.0000      -9.904728      -269.5213
   4   2.0000      -9.904487      -269.5148
   5   2.0000      -9.903142      -269.4782
   6   2.0000      -9.892999      -269.2022
   7   2.0000      -0.828339       -22.5402
   8   2.0000      -0.748008       -20.3543
   9   2.0000      -0.657287       -17.8857
  10   2.0000      -0.651202       -17.7201
  11   2.0000      -0.537256       -14.6195
  12   2.0000      -0.531305       -14.4575
  13   2.0000      -0.463100       -12.6016
  14   2.0000      -0.448503       -12.2044
  15   2.0000      -0.419795       -11.4232
  16   2.0000      -0.376718       -10.2510
  17   2.0000      -0.364936        -9.9304
  18   2.0000      -0.341146        -9.2831
  19   2.0000      -0.321884        -8.7589
  20   2.0000      -0.302123        -8.2212
  21   2.0000      -0.277558        -7.5527
  22   2.0000      -0.258150        -7.0246
  23   2.0000      -0.198224        -5.3940
  24   2.0000      -0.164754        -4.4832
  25   0.0000      -0.020491        -0.5576
  26   0.0000       0.002399         0.0653
  27   0.0000       0.026619         0.7243
  28   0.0000       0.049240         1.3399
  29   0.0000       0.066283         1.8037

MULLIKEN ATOMIC CHARGES
-----------------------
   0 C :    0.059376
   1 C :    0.057183
   2 C :    0.038714
   3 C :    0.051585
   4 C :    0.062350
   5 C :    0.032295
   6 H :   -0.063428
   7 H :   -0.063240
   8 H :   -0.057463
   9 H :   -0.064711
  10 H :   -0.059328
  11 N :   -0.118750
  12 H :    0.062640
  13 H :    0.062778
Sum of atomic charges:   -0.0000000

LOEWDIN ATOMIC CHARGES
----------------------
   0 C :   -0.049558
   1 C :   -0.022125
   2 C :   -0.057247
   3 C :   -0.018407
   4 C :   -0.052055
   5 C :   -0.048130
   6 H :    0.010317
   7 H :    0.012139
   8 H :    0.018063
   9 H :    0.018757
  10 H :    0.019507
  11 N :    0.066948
  12 H :    0.050494
  13 H :    0.051295

  Mayer bond orders larger than 0.1
B(  0-C ,  1-C ) :   1.4695 B(  0-C ,  5-C ) :   1.3116 B(  0-C ,  6-H ) :   0.9292
B(  1-C ,  2-C ) :   1.4462 B(  1-C , 10-H ) :   0.9312 B(  2-C ,  3-C ) :   1.4334
B(  2-C ,  9-H ) :   0.9383 B(  3-C ,  4-C ) :   1.4659 B(  3-C ,  8-H ) :   0.9337
B(  4-C ,  5-C ) :   1.3147 B(  4-C ,  7-H ) :   0.9306 B(  5-C , 11-N ) :   1.2113
B( 11-N , 12-H ) :   0.9714 B( 11-N , 13-H ) :   0.9717

FINAL SINGLE POINT ENERGY      -287.513340091442

DIPOLE MOMENT
-------------
                                X             Y             Z
Electronic contribution:     -0.05097       0.03635       0.07109
Nuclear contribution   :     -0.67968      -0.04939       0.36360
                        -----------------------------------------
Total Dipole Moment    :     -0.73065      -0.01304       0.43468
                        -----------------------------------------
Magnitude (a.u.)       :      0.85028
Magnitude (Debye)      :      2.16124

CHEMICAL SHIELDING SUMMARY (ppm)
--------------------------

  Nucleus  Element    Isotropic     Anisotropy
  -------  -------  ------------   ------------
      0       C           84.068        128.042
      1       C           66.832        157.099
      2       C           77.202        151.851
      3       C           65.364        159.564
      4       C           85.073        128.871
      5       C           55.980        146.712
      6       H           25.418          5.719
      7       H           25.305          5.408
      8       H           24.376          4.694
      9       H           24.658          3.652
     10       H           24.400          4.502
     11       N          200.853         71.154
     12       H           28.430         11.828
     13       H           28.447         12.025

                             ****ORCA TERMINATED NORMALLY****
TOTAL RUN TIME: 0 days 0 hours 0 minutes 52 seconds 506 msec
