                         Program Version 4.0.0.2 - RELEASE -
|  1> !cc-pvdz OLYP NMR
|  2>
|  3> *xyzfile 0 1 guess.xyz
|  4>
|  5>
|  6>                          ****END OF INPUT****

CARTESIAN COORDINATES (ANGSTROEM)
---------------------------------
  C     -7.113070   -2.336260    4.694200
  C     -6.859770   -1.022870    4.633700
  H     -6.382850   -3.071880    4.366640
  H     -8.059930   -2.702790    5.075840
  C     -5.572410   -0.523230    4.106030
  H     -7.585380   -0.289050    4.962090
  O     -4.702860   -1.212120    3.600330
  O     -5.543300    0.821390    4.281320
  C     -4.361000    1.449220    3.771470
  C     -4.373340    2.904340    4.198030
  H     -4.364470    1.383380    2.677910
  H     -3.464850    0.958050    4.167510
  H     -5.295250    3.397080    3.872290
  H     -3.517030    3.440390    3.779240
  H     -4.337970    2.983830    5.289690

 Total Charge           Charge          ....    0
 Multiplicity           Mult            ....    1
 Number of Electrons    NEL             ....   54
 Basis Dimension        Dim             ....  138

ORBITAL ENERGIES
----------------

  NO   OCC          E(Eh)            E(eV)
   0   2.0000     -18.817071      -512.0385
   1   2.0000     -18.752090      -510.2703
   2   2.0000     -10.023886      -272.7638
   3   2.0000      -9.966458      -271.2011
   4   2.0000      -9.927015      -270.1278
   5   2.0000      -9.924701      -270.0648
   6   2.0000      -9.913371      -269.7565
   7   2.0000      -1.012943       -27.5636
   8   2.0000      -0.927585       -25.2409
   9   2.0000      -0.726026       -19.7562
  10   2.0000      -0.695661       -18.9299
  11   2.0000      -0.603348       -16.4179
  12   2.0000      -0.538826       -14.6622
  13   2.0000      -0.496265       -13.5041
  14   2.0000      -0.453709       -12.3461
  15   2.0000      -0.435425       -11.8485
  16   2.0000      -0.410230       -11.1629
  17   2.0000      -0.383217       -10.4279
  18   2.0000      -0.369155       -10.0452
  19   2.0000      -0.355044        -9.6612
  20   2.0000      -0.344427        -9.3723
  21   2.0000      -0.325418        -8.8551
  22   2.0000      -0.314530        -8.5588
  23   2.0000      -0.299463        -8.1488
  24   2.0000      -0.252492        -6.8707
  25   2.0000      -0.243841        -6.6353
  26   2.0000      -0.217907        -5.9296
  27   0.0000      -0.069835        -1.9003
  28   0.0000       0.043232         1.1764
  29   0.0000       0.050184         1.3656
  30   0.0000       0.060098         1.6354
  31   0.0000       0.083488         2.2718

MULLIKEN ATOMIC CHARGES
-----------------------
   0 C :    0.138807
   1 C :   -0.085052
   2 H :    0.010100
   3 H :    0.003967
   4 C :    0.263123
   5 H :   -0.033136
   6 O :   -0.256602
   7 O :   -0.265423
   8 C :    0.134515
   9 C :    0.019106
  10 H :    0.017458
  11 H :    0.012755
  12 H :    0.014301
  13 H :    0.008347
  14 H :    0.017735
Sum of atomic charges:    0.0000000

LOEWDIN ATOMIC CHARGES
----------------------
   0 C :    0.024306
   1 C :   -0.055238
   2 H :    0.026865
   3 H :    0.023543
   4 C :   -0.162467
   5 H :    0.023697
   6 O :   -0.037505
   7 O :    0.097320
   8 C :   -0.000861
   9 C :   -0.060430
  10 H :    0.019488
  11 H :    0.018124
  12 H :    0.025822
  13 H :    0.030812
  14 H :    0.026523

  Mayer bond orders larger than 0.1
B(  0-C ,  1-C ) :   1.9740 B(  0-C ,  2-H ) :   0.9209 B(  0-C ,  3-H ) :   0.9329
B(  1-C ,  4-C ) :   1.0329 B(  1-C ,  5-H ) :   0.9433 B(  4-C ,  6-O ) :   2.0585
B(  4-C ,  7-O ) :   1.1591 B(  6-O ,  7-O ) :   0.1099 B(  7-O ,  8-C ) :   0.9546
B(  8-C ,  9-C ) :   1.1178 B(  8-C , 10-H ) :   0.9493 B(  8-C , 11-H ) :   0.9428
B(  9-C , 12-H ) :   0.9636 B(  9-C , 13-H ) :   0.9556 B(  9-C , 14-H ) :   0.9655

FINAL SINGLE POINT ENERGY      -345.688007126194

DIPOLE MOMENT
-------------
                                X             Y             Z
Electronic contribution:     -0.97787      -4.78995      -0.54242
Nuclear contribution   :      0.66381       5.29801       0.76161
                        -----------------------------------------
Total Dipole Moment    :     -0.31406       0.50806       0.21919
                        -----------------------------------------
Magnitude (a.u.)       :      0.63624
Magnitude (Debye)      :      1.61718

CHEMICAL SHIELDING SUMMARY (ppm)
--------------------------

  Nucleus  Element    Isotropic     Anisotropy
  -------  -------  ------------   ------------
      0       C           66.906        167.844
      1       C           66.652        127.371
      2       H           24.871          5.351
      3       H           25.812          4.346
      4       C           36.434         69.889
      5       H           25.379          6.445
      6       O          -36.349        498.800
      7       O          117.725         97.915
      8       C          132.117         51.208
      9       C          176.684         22.852
     10       H           27.679          6.303
     11       H           27.266          4.990
     12       H           30.234          7.633
     13       H           30.437          8.863
     14       H           30.290          7.717

                             ****ORCA TERMINATED NORMALLY****
TOTAL RUN TIME: 0 days 0 hours 0 minutes 50 seconds 504 msec
