                         Program Version 4.0.0.2 - RELEASE -
|  1> !cc-pvdz BP86 NMR
|  2>
|  3> *xyzfile 0 1 guess.xyz
|  4>
|  5>
|  6>                          ****END OF INPUT****

CARTESIAN COORDINATES (ANGSTROEM)
---------------------------------
  C     -7.113070   -2.336260    4.694200
  C     -6.859770   -1.022870    4.633700
  H     -6.382850   -3.071880    4.366640
  H     -8.059930   -2.702790    5.075840
  C     -5.572410   -0.523230    4.106030
  H     -7.585380   -0.289050    4.962090
  O     -4.702860   -1.212120    3.600330
  O     -5.543300    0.821390    4.281320
  C     -4.361000    1.449220    3.771470
  C     -4.373340    2.904340    4.198030
  H     -4.364470    1.383380    2.677910
  H     -3.464850    0.958050    4.167510
  H     -5.295250    3.397080    3.872290
  H     -3.517030    3.440390    3.779240
  H     -4.337970    2.983830    5.289690

 Total Charge           Charge          ....    0
 Multiplicity           Mult            ....    1
 Number of Electrons    NEL             ....   54
 Basis Dimension        Dim             ....  138

ORBITAL ENERGIES
----------------

  NO   OCC          E(Eh)            E(eV)
   0   2.0000     -18.831838      -512.4404
   1   2.0000     -18.770008      -510.7579
   2   2.0000     -10.027017      -272.8490
   3   2.0000      -9.966829      -271.2112
   4   2.0000      -9.928648      -270.1722
   5   2.0000      -9.926988      -270.1271
   6   2.0000      -9.913584      -269.7623
   7   2.0000      -1.013965       -27.5914
   8   2.0000      -0.929191       -25.2846
   9   2.0000      -0.729490       -19.8504
  10   2.0000      -0.699057       -19.0223
  11   2.0000      -0.607734       -16.5373
  12   2.0000      -0.543117       -14.7790
  13   2.0000      -0.502596       -13.6763
  14   2.0000      -0.461082       -12.5467
  15   2.0000      -0.444189       -12.0870
  16   2.0000      -0.417251       -11.3540
  17   2.0000      -0.390546       -10.6273
  18   2.0000      -0.377826       -10.2812
  19   2.0000      -0.362298        -9.8586
  20   2.0000      -0.351733        -9.5711
  21   2.0000      -0.332676        -9.0526
  22   2.0000      -0.321923        -8.7600
  23   2.0000      -0.306768        -8.3476
  24   2.0000      -0.260541        -7.0897
  25   2.0000      -0.253074        -6.8865
  26   2.0000      -0.227123        -6.1803
  27   0.0000      -0.080219        -2.1829
  28   0.0000       0.039610         1.0778
  29   0.0000       0.047645         1.2965
  30   0.0000       0.064982         1.7683
  31   0.0000       0.085550         2.3279

MULLIKEN ATOMIC CHARGES
-----------------------
   0 C :    0.054387
   1 C :   -0.099363
   2 H :    0.042623
   3 H :    0.036437
   4 C :    0.197445
   5 H :    0.004644
   6 O :   -0.222240
   7 O :   -0.225633
   8 C :    0.062529
   9 C :   -0.069558
  10 H :    0.047685
  11 H :    0.042141
  12 H :    0.043494
  13 H :    0.038538
  14 H :    0.046870
Sum of atomic charges:    0.0000000

LOEWDIN ATOMIC CHARGES
----------------------
   0 C :    0.008898
   1 C :   -0.064063
   2 H :    0.034029
   3 H :    0.031598
   4 C :   -0.175413
   5 H :    0.031352
   6 O :   -0.029688
   7 O :    0.106644
   8 C :   -0.019117
   9 C :   -0.082175
  10 H :    0.026776
  11 H :    0.024984
  12 H :    0.033426
  13 H :    0.038621
  14 H :    0.034130

  Mayer bond orders larger than 0.1
B(  0-C ,  1-C ) :   1.9773 B(  0-C ,  2-H ) :   0.9263 B(  0-C ,  3-H ) :   0.9341
B(  1-C ,  4-C ) :   1.0355 B(  1-C ,  5-H ) :   0.9416 B(  4-C ,  6-O ) :   2.1024
B(  4-C ,  7-O ) :   1.1774 B(  6-O ,  7-O ) :   0.1117 B(  7-O ,  8-C ) :   0.9634
B(  8-C ,  9-C ) :   1.1235 B(  8-C , 10-H ) :   0.9467 B(  8-C , 11-H ) :   0.9401
B(  9-C , 12-H ) :   0.9621 B(  9-C , 13-H ) :   0.9543 B(  9-C , 14-H ) :   0.9642

FINAL SINGLE POINT ENERGY      -345.804129184696

DIPOLE MOMENT
-------------
                                X             Y             Z
Electronic contribution:     -0.97832      -4.77548      -0.54008
Nuclear contribution   :      0.66381       5.29801       0.76161
                        -----------------------------------------
Total Dipole Moment    :     -0.31451       0.52253       0.22152
                        -----------------------------------------
Magnitude (a.u.)       :      0.64886
Magnitude (Debye)      :      1.64928

CHEMICAL SHIELDING SUMMARY (ppm)
--------------------------

  Nucleus  Element    Isotropic     Anisotropy
  -------  -------  ------------   ------------
      0       C           64.429        172.098
      1       C           64.182        130.183
      2       H           24.738          5.341
      3       H           25.711          4.303
      4       C           33.122         71.257
      5       H           25.264          6.521
      6       O          -40.451        482.211
      7       O          114.588         98.449
      8       C          132.346         53.371
      9       C          177.726         21.568
     10       H           27.585          6.339
     11       H           27.162          5.014
     12       H           30.177          7.681
     13       H           30.403          8.975
     14       H           30.235          7.783

                             ****ORCA TERMINATED NORMALLY****
TOTAL RUN TIME: 0 days 0 hours 0 minutes 49 seconds 140 msec
