                         Program Version 4.0.0.2 - RELEASE -
|  1> !aug-cc-pVDZ B3LYP NMR
|  2>
|  3> *xyzfile 0 1 guess.xyz
|  4>
|  5>
|  6>                          ****END OF INPUT****

CARTESIAN COORDINATES (ANGSTROEM)
---------------------------------
  C     -5.186560    2.223200    3.820790
  C     -4.792690    3.653860    4.079970
  O     -4.919080    2.703800    5.144860
  H     -5.554350    4.419510    4.001630
  H     -3.793280    3.983320    3.824590
  C     -4.203470    1.217920    3.334220
  H     -6.212280    1.981030    3.577380
  H     -3.208040    1.653040    3.199280
  H     -4.526200    0.810590    2.371170
  H     -4.122550    0.387850    4.042930

 Total Charge           Charge          ....    0
 Multiplicity           Mult            ....    1
 Number of Electrons    NEL             ....   32
 Basis Dimension        Dim             ....  146

ORBITAL ENERGIES
----------------

  NO   OCC          E(Eh)            E(eV)
   0   2.0000     -19.160761      -521.3908
   1   2.0000     -10.240668      -278.6628
   2   2.0000     -10.235877      -278.5324
   3   2.0000     -10.180479      -277.0249
   4   2.0000      -1.073875       -29.2216
   5   2.0000      -0.750932       -20.4339
   6   2.0000      -0.663500       -18.0548
   7   2.0000      -0.598204       -16.2780
   8   2.0000      -0.507308       -13.8046
   9   2.0000      -0.472361       -12.8536
  10   2.0000      -0.433602       -11.7989
  11   2.0000      -0.405000       -11.0206
  12   2.0000      -0.379359       -10.3229
  13   2.0000      -0.370995       -10.0953
  14   2.0000      -0.298576        -8.1247
  15   2.0000      -0.274174        -7.4607
  16   0.0000      -0.006431        -0.1750
  17   0.0000       0.010114         0.2752
  18   0.0000       0.010901         0.2966
  19   0.0000       0.022433         0.6104
  20   0.0000       0.037423         1.0183

MULLIKEN ATOMIC CHARGES
-----------------------
   0 C :    1.158252
   1 C :    1.314042
   2 O :   -0.611211
   3 H :   -0.506271
   4 H :   -0.567129
   5 C :    0.579129
   6 H :   -0.655444
   7 H :   -0.285899
   8 H :   -0.259540
   9 H :   -0.165930
Sum of atomic charges:    0.0000000

LOEWDIN ATOMIC CHARGES
----------------------
   0 C :   -1.132649
   1 C :   -0.417875
   2 O :    0.421004
   3 H :    0.242819
   4 H :    0.251573
   5 C :   -0.466303
   6 H :    0.287428
   7 H :    0.267670
   8 H :    0.265510
   9 H :    0.280824

  Mayer bond orders larger than 0.1
B(  0-C ,  1-C ) :   0.8754 B(  0-C ,  2-O ) :   0.5765 B(  0-C ,  3-H ) :   0.1367
B(  0-C ,  5-C ) :   1.1702 B(  0-C ,  6-H ) :   0.3484 B(  0-C ,  7-H ) :   0.1395
B(  0-C ,  9-H ) :   0.1302 B(  1-C ,  2-O ) :   0.9623 B(  1-C ,  3-H ) :   0.6081
B(  1-C ,  4-H ) :   0.6784 B(  1-C ,  7-H ) :  -0.1022 B(  3-H ,  4-H ) :  -0.1982
B(  5-C ,  7-H ) :   0.8915 B(  5-C ,  8-H ) :   0.8273 B(  5-C ,  9-H ) :   0.8655

FINAL SINGLE POINT ENERGY      -193.012516396798

DIPOLE MOMENT
-------------
                                X             Y             Z
Electronic contribution:     -1.10493       1.37774       2.61173
Nuclear contribution   :      1.09206      -1.32382      -3.37647
                        -----------------------------------------
Total Dipole Moment    :     -0.01287       0.05392      -0.76474
                        -----------------------------------------
Magnitude (a.u.)       :      0.76675
Magnitude (Debye)      :      1.94893

CHEMICAL SHIELDING SUMMARY (ppm)
--------------------------

  Nucleus  Element    Isotropic     Anisotropy
  -------  -------  ------------   ------------
      0       C          144.692         65.388
      1       C          143.085         51.567
      2       O          302.403        155.267
      3       H           29.240         10.969
      4       H           29.615          9.018
      5       C          173.883         34.389
      6       H           29.034         11.252
      7       H           30.899          8.985
      8       H           30.313          9.162
      9       H           30.054          8.348

                             ****ORCA TERMINATED NORMALLY****
TOTAL RUN TIME: 0 days 0 hours 1 minutes 57 seconds 187 msec
