                         Program Version 4.0.0.2 - RELEASE -
|  1> !aug-cc-pVDZ B3LYP NMR
|  2>
|  3> *xyzfile 0 1 guess.xyz
|  4>
|  5>
|  6>                          ****END OF INPUT****

CARTESIAN COORDINATES (ANGSTROEM)
---------------------------------
  C    -19.618150    2.348620   10.603840
  C    -18.329480    2.331010    9.979460
  C    -17.582080    3.479600    9.795850
  C    -18.130020    4.655620   10.318010
  C    -19.399070    4.659850   10.991880
  C    -20.192140    3.511720   11.172310
  H    -20.162190    1.411430   10.604200
  H    -19.729270    5.634250   11.360510
  H    -17.546410    5.564780   10.193020
  H    -16.626760    3.473280    9.267130
  H    -17.897310    1.391470    9.620750
  N    -21.454830    3.498080   11.785030
  H    -21.984110    2.648280   11.959740
  H    -21.888850    4.304090   12.235440

 Total Charge           Charge          ....    0
 Multiplicity           Mult            ....    1
 Number of Electrons    NEL             ....   50
 Basis Dimension        Dim             ....  224

ORBITAL ENERGIES
----------------

  NO   OCC          E(Eh)            E(eV)
   0   2.0000     -14.346404      -390.3855
   1   2.0000     -10.236127      -278.5392
   2   2.0000     -10.186213      -277.1809
   3   2.0000     -10.184418      -277.1321
   4   2.0000     -10.183677      -277.1119
   5   2.0000     -10.182231      -277.0726
   6   2.0000     -10.172671      -276.8125
   7   2.0000      -0.913081       -24.8462
   8   2.0000      -0.830527       -22.5998
   9   2.0000      -0.733329       -19.9549
  10   2.0000      -0.728235       -19.8163
  11   2.0000      -0.606105       -16.4930
  12   2.0000      -0.597949       -16.2710
  13   2.0000      -0.525278       -14.2935
  14   2.0000      -0.507996       -13.8233
  15   2.0000      -0.480177       -13.0663
  16   2.0000      -0.435569       -11.8524
  17   2.0000      -0.423985       -11.5372
  18   2.0000      -0.399075       -10.8594
  19   2.0000      -0.378321       -10.2946
  20   2.0000      -0.357777        -9.7356
  21   2.0000      -0.332329        -9.0431
  22   2.0000      -0.310358        -8.4453
  23   2.0000      -0.239229        -6.5098
  24   2.0000      -0.208243        -5.6666
  25   0.0000      -0.014522        -0.3952
  26   0.0000      -0.013130        -0.3573
  27   0.0000       0.002153         0.0586
  28   0.0000       0.006899         0.1877
  29   0.0000       0.008182         0.2227

MULLIKEN ATOMIC CHARGES
-----------------------
   0 C :    1.057915
   1 C :    0.807193
   2 C :    0.273016
   3 C :    0.940135
   4 C :    1.106375
   5 C :    0.221822
   6 H :   -0.917983
   7 H :   -0.866455
   8 H :   -0.819455
   9 H :   -0.726049
  10 H :   -0.804750
  11 N :    0.019096
  12 H :   -0.154336
  13 H :   -0.136525
Sum of atomic charges:   -0.0000000

LOEWDIN ATOMIC CHARGES
----------------------
   0 C :   -0.190019
   1 C :   -0.292364
   2 C :   -0.334999
   3 C :   -0.268239
   4 C :   -0.192711
   5 C :   -0.834460
   6 H :    0.289785
   7 H :    0.299289
   8 H :    0.289282
   9 H :    0.295206
  10 H :    0.299926
  11 N :    0.184398
  12 H :    0.224851
  13 H :    0.230053

  Mayer bond orders larger than 0.1
B(  0-C ,  1-C ) :   1.2151 B(  0-C ,  2-C ) :  -0.1435 B(  0-C ,  3-C ) :   0.2932
B(  0-C ,  4-C ) :  -0.2132 B(  0-C ,  5-C ) :   1.2554 B(  0-C ,  6-H ) :  -0.6286
B(  0-C , 10-H ) :   0.2704 B(  1-C ,  2-C ) :   1.5848 B(  1-C ,  3-C ) :  -0.2592
B(  1-C ,  4-C ) :   0.2497 B(  1-C ,  5-C ) :  -0.3611 B(  1-C ,  6-H ) :   0.2988
B(  1-C ,  8-H ) :  -0.1934 B(  1-C ,  9-H ) :   0.2468 B(  1-C , 10-H ) :  -0.3208
B(  2-C ,  3-C ) :   1.5712 B(  2-C ,  4-C ) :  -0.1732 B(  2-C ,  5-C ) :   0.2459
B(  2-C ,  8-H ) :   0.4288 B(  2-C ,  9-H ) :  -0.1873 B(  2-C , 10-H ) :   0.4108
B(  3-C ,  4-C ) :   1.1861 B(  3-C ,  5-C ) :  -0.3373 B(  3-C ,  7-H ) :   0.2045
B(  3-C ,  8-H ) :  -0.4247 B(  3-C ,  9-H ) :   0.2239 B(  3-C , 10-H ) :  -0.1665
B(  4-C ,  5-C ) :   1.1331 B(  4-C ,  7-H ) :  -0.5113 B(  4-C ,  8-H ) :   0.3354
B(  4-C , 11-N ) :  -0.1026 B(  5-C ,  6-H ) :   0.4354 B(  5-C ,  7-H ) :   0.4901
B(  5-C , 11-N ) :   1.0567 B( 11-N , 12-H ) :   1.0902 B( 11-N , 13-H ) :   1.0615

FINAL SINGLE POINT ENERGY      -287.448587291673

DIPOLE MOMENT
-------------
                                X             Y             Z
Electronic contribution:      0.09409       0.03832      -0.00524
Nuclear contribution   :     -0.67968      -0.04939       0.36360
                        -----------------------------------------
Total Dipole Moment    :     -0.58560      -0.01107       0.35836
                        -----------------------------------------
Magnitude (a.u.)       :      0.68664
Magnitude (Debye)      :      1.74529

CHEMICAL SHIELDING SUMMARY (ppm)
--------------------------

  Nucleus  Element    Isotropic     Anisotropy
  -------  -------  ------------   ------------
      0       C           77.785        138.151
      1       C           59.771        168.132
      2       C           71.366        161.724
      3       C           58.102        171.080
      4       C           79.178        139.188
      5       C           46.524        161.793
      6       H           25.189          5.971
      7       H           25.084          5.652
      8       H           24.124          5.184
      9       H           24.270          4.264
     10       H           24.162          4.973
     11       N          204.932         72.450
     12       H           27.920         11.709
     13       H           27.997         11.885

                             ****ORCA TERMINATED NORMALLY****
TOTAL RUN TIME: 0 days 0 hours 10 minutes 9 seconds 975 msec
